Generic title
 4000
    1SOL     OW    1   1.281   0.559   2.764
    1SOL    HW1    2   1.188   0.561   2.787
    1SOL    HW2    3   1.291   0.626   2.696
    1SOL     MW    4   1.270   0.568   2.758
    2SOL     OW    5   1.806   2.541   0.897
    2SOL    HW1    6   1.795   2.560   0.804
    2SOL    HW2    7   1.774   2.451   0.907
    2SOL     MW    8   1.800   2.532   0.887
    3SOL     OW    9   0.899   1.052   1.667
    3SOL    HW1   10   0.984   1.092   1.686
    3SOL    HW2   11   0.919   0.960   1.652
    3SOL     MW   12   0.913   1.045   1.667
    4SOL     OW   13   0.975   3.037   0.106
    4SOL    HW1   14   0.976   2.944   0.130
    4SOL    HW2   15   0.889   3.067   0.134
    4SOL     MW   16   0.964   3.029   0.113
    5SOL     OW   17   2.113   2.474   2.293
    5SOL    HW1   18   2.103   2.439   2.205
    5SOL    HW2   19   2.095   2.567   2.285
    5SOL     MW   20   2.109   2.481   2.281
    6SOL     OW   21   0.099   1.060   2.867
    6SOL    HW1   22   0.043   0.994   2.906
    6SOL    HW2   23   0.039   1.131   2.843
    6SOL     MW   24   0.084   1.061   2.869
    7SOL     OW   25   0.173   2.416   2.282
    7SOL    HW1   26   0.201   2.395   2.192
    7SOL    HW2   27   0.171   2.512   2.284
    7SOL     MW   28   0.177   2.426   2.271
    8SOL     OW   29   2.879   2.046   0.600
    8SOL    HW1   30   2.813   2.058   0.668
    8SOL    HW2   31   2.962   2.063   0.643
    8SOL     MW   32   2.881   2.050   0.614
    9SOL     OW   33   1.743   1.473   1.656
    9SOL    HW1   34   1.770   1.428   1.576
    9SOL    HW2   35   1.741   1.565   1.632
    9SOL     MW   36   1.746   1.479   1.643
   10SOL     OW   37   1.182   0.200   0.284
   10SOL    HW1   38   1.091   0.215   0.308
   10SOL    HW2   39   1.191   0.105   0.277
   10SOL     MW   40   1.172   0.190   0.286
   11SOL     OW   41   1.386   0.315   0.445
   11SOL    HW1   42   1.370   0.409   0.448
   11SOL    HW2   43   1.316   0.281   0.389
   11SOL     MW   44   1.375   0.322   0.438
   12SOL     OW   45   1.658   1.017   1.399
   12SOL    HW1   46   1.747   1.041   1.423
   12SOL    HW2   47   1.666   0.972   1.315
   12SOL     MW   48   1.670   1.014   1.391
   13SOL     OW   49   2.816   2.838   0.285
   13SOL    HW1   50   2.799   2.904   0.352
   13SOL    HW2   51   2.907   2.812   0.301
   13SOL     MW   52   2.825   2.843   0.296
   14SOL     OW   53   2.708   1.567   0.241
   14SOL    HW1   54   2.713   1.493   0.181
   14SOL    HW2   55   2.787   1.559   0.295
   14SOL     MW   56   2.719   1.557   0.240
   15SOL     OW   57   1.841   2.691   2.391
   15SOL    HW1   58   1.874   2.656   2.474
   15SOL    HW2   59   1.919   2.713   2.341
   15SOL     MW   60   1.855   2.690   2.395
   16SOL     OW   61   2.208   2.618   2.656
   16SOL    HW1   62   2.227   2.673   2.581
   16SOL    HW2   63   2.114   2.597   2.648
   16SOL     MW   64   2.198   2.622   2.646
   17SOL     OW   65   3.139   2.689   1.389
   17SOL    HW1   66   3.189   2.612   1.359
   17SOL    HW2   67   3.073   2.702   1.321
   17SOL     MW   68   3.137   2.681   1.376
   18SOL     OW   69   1.020   0.733   2.205
   18SOL    HW1   70   0.939   0.682   2.202
   18SOL    HW2   71   1.000   0.811   2.153
   18SOL     MW   72   1.007   0.736   2.198
   19SOL     OW   73   2.923   2.384   0.270
   19SOL    HW1   74   2.902   2.330   0.194
   19SOL    HW2   75   2.858   2.454   0.269
   19SOL     MW   76   2.912   2.386   0.260
   20SOL     OW   77   2.325   2.664   0.069
   20SOL    HW1   78   2.408   2.674   0.022
   20SOL    HW2   79   2.270   2.614   0.010
   20SOL     MW   80   2.329   2.659   0.055
   21SOL     OW   81   1.351   0.601   0.450
   21SOL    HW1   82   1.263   0.591   0.486
   21SOL    HW2   83   1.357   0.692   0.424
   21SOL     MW   84   1.340   0.611   0.451
   22SOL     OW   85   1.109   1.900   0.520
   22SOL    HW1   86   1.158   1.861   0.448
   22SOL    HW2   87   1.128   1.993   0.515
   22SOL     MW   88   1.118   1.907   0.510
   23SOL     OW   89   1.159   3.126   0.299
   23SOL    HW1   90   1.107   3.158   0.373
   23SOL    HW2   91   1.094   3.100   0.234
   23SOL     MW   92   1.144   3.127   0.300
   24SOL     OW   93   0.757   1.781   2.226
   24SOL    HW1   94   0.726   1.706   2.276
   24SOL    HW2   95   0.695   1.851   2.247
   24SOL     MW   96   0.745   1.781   2.235
   25SOL     OW   97   2.812   0.186   2.833
   25SOL    HW1   98   2.725   0.225   2.821
   25SOL    HW2   99   2.834   0.205   2.924
   25SOL     MW  100   2.804   0.194   2.843
   26SOL     OW  101   2.379   2.540   2.312
   26SOL    HW1  102   2.289   2.509   2.308
   26SOL    HW2  103   2.416   2.500   2.390
   26SOL     MW  104   2.372   2.531   2.321
   27SOL     OW  105   1.767   2.216   2.389
   27SOL    HW1  106   1.752   2.193   2.481
   27SOL    HW2  107   1.731   2.304   2.380
   27SOL     MW  108   1.761   2.225   2.400
   28SOL     OW  109   1.300   0.223   1.571
   28SOL    HW1  110   1.381   0.187   1.606
   28SOL    HW2  111   1.249   0.245   1.649
   28SOL     MW  112   1.304   0.221   1.586
   29SOL     OW  113   2.351   2.290   1.333
   29SOL    HW1  114   2.395   2.215   1.293
   29SOL    HW2  115   2.257   2.269   1.327
   29SOL     MW  116   2.344   2.278   1.328
   30SOL     OW  117   1.226   3.161   1.164
   30SOL    HW1  118   1.198   3.072   1.140
   30SOL    HW2  119   1.235   3.206   1.080
   30SOL     MW  120   1.224   3.155   1.150
   31SOL     OW  121   2.942   2.868   2.381
   31SOL    HW1  122   2.879   2.810   2.422
   31SOL    HW2  123   2.965   2.931   2.449
   31SOL     MW  124   2.937   2.869   2.395
   32SOL     OW  125   0.061   1.324   2.428
   32SOL    HW1  126   0.140   1.334   2.481
   32SOL    HW2  127  -0.010   1.357   2.483
   32SOL     MW  128   0.062   1.329   2.442
   33SOL     OW  129   2.092   2.881   0.704
   33SOL    HW1  130   2.076   2.892   0.610
   33SOL    HW2  131   2.128   2.793   0.712
   33SOL     MW  132   2.094   2.871   0.693
   34SOL     OW  133   2.619   1.909   1.308
   34SOL    HW1  134   2.708   1.872   1.307
   34SOL    HW2  135   2.609   1.943   1.397
   34SOL     MW  136   2.629   1.908   1.320
   35SOL     OW  137   0.594   1.213   0.572
   35SOL    HW1  138   0.547   1.151   0.516
   35SOL    HW2  139   0.591   1.296   0.524
   35SOL     MW  140   0.588   1.216   0.559
   36SOL     OW  141   2.273   2.437   0.438
   36SOL    HW1  142   2.222   2.361   0.465
   36SOL    HW2  143   2.210   2.508   0.435
   36SOL     MW  144   2.258   2.436   0.441
   37SOL     OW  145   2.547   3.117   2.865
   37SOL    HW1  146   2.588   3.110   2.779
   37SOL    HW2  147   2.544   3.027   2.898
   37SOL     MW  148   2.552   3.105   2.858
   38SOL     OW  149   1.728   0.549   0.987
   38SOL    HW1  150   1.813   0.505   0.993
   38SOL    HW2  151   1.685   0.507   0.913
   38SOL     MW  152   1.733   0.538   0.978
   39SOL     OW  153   2.191   2.139   0.827
   39SOL    HW1  154   2.195   2.116   0.734
   39SOL    HW2  155   2.220   2.059   0.872
   39SOL     MW  156   2.195   2.126   0.821
   40SOL     OW  157   1.773   0.559   1.801
   40SOL    HW1  158   1.810   0.503   1.869
   40SOL    HW2  159   1.790   0.513   1.719
   40SOL     MW  160   1.780   0.546   1.799
   41SOL     OW  161   2.567   2.666   3.132
   41SOL    HW1  162   2.645   2.704   3.173
   41SOL    HW2  163   2.539   2.730   3.068
   41SOL     MW  164   2.574   2.679   3.129
   42SOL     OW  165   0.971   1.801   3.051
   42SOL    HW1  166   0.983   1.893   3.025
   42SOL    HW2  167   1.017   1.751   2.984
   42SOL     MW  168   0.978   1.807   3.039
   43SOL     OW  169   2.368   1.338   1.142
   43SOL    HW1  170   2.345   1.298   1.225
   43SOL    HW2  171   2.326   1.283   1.076
   43SOL     MW  172   2.360   1.326   1.144
   44SOL     OW  173   1.355   1.105   0.238
   44SOL    HW1  174   1.398   1.162   0.174
   44SOL    HW2  175   1.268   1.143   0.248
   44SOL     MW  176   1.349   1.117   0.231
   45SOL     OW  177   0.944   2.482   2.099
   45SOL    HW1  178   0.994   2.402   2.091
   45SOL    HW2  179   1.004   2.545   2.138
   45SOL     MW  180   0.958   2.480   2.103
   46SOL     OW  181   1.142   1.629   1.155
   46SOL    HW1  182   1.222   1.638   1.207
   46SOL    HW2  183   1.098   1.714   1.165
   46SOL     MW  184   1.147   1.641   1.163
   47SOL     OW  185   0.496   0.663   1.571
   47SOL    HW1  186   0.565   0.690   1.632
   47SOL    HW2  187   0.423   0.722   1.589
   47SOL     MW  188   0.496   0.674   1.581
   48SOL     OW  189   0.806   3.128   2.706
   48SOL    HW1  190   0.734   3.161   2.653
   48SOL    HW2  191   0.881   3.125   2.646
   48SOL     MW  192   0.807   3.132   2.692
   49SOL     OW  193   2.860   1.797   2.544
   49SOL    HW1  194   2.918   1.770   2.616
   49SOL    HW2  195   2.911   1.861   2.495
   49SOL     MW  196   2.874   1.802   2.547
   50SOL     OW  197   2.308   1.432   2.368
   50SOL    HW1  198   2.221   1.449   2.332
   50SOL    HW2  199   2.344   1.364   2.311
   50SOL     MW  200   2.302   1.426   2.356
   51SOL     OW  201   2.114   1.642   0.953
   51SOL    HW1  202   2.081   1.579   0.889
   51SOL    HW2  203   2.130   1.590   1.031
   51SOL     MW  204   2.112   1.628   0.955
   52SOL     OW  205   2.301   2.182   2.899
   52SOL    HW1  206   2.228   2.179   2.960
   52SOL    HW2  207   2.308   2.273   2.873
   52SOL     MW  208   2.293   2.193   2.903
   53SOL     OW  209   3.009   0.610   0.530
   53SOL    HW1  210   2.938   0.669   0.508
   53SOL    HW2  211   3.001   0.538   0.468
   53SOL     MW  212   2.999   0.608   0.519
   54SOL     OW  213   0.805   0.576   2.171
   54SOL    HW1  214   0.807   0.541   2.082
   54SOL    HW2  215   0.772   0.503   2.224
   54SOL     MW  216   0.801   0.562   2.167
   55SOL     OW  217   1.537   2.911   2.663
   55SOL    HW1  218   1.483   2.917   2.584
   55SOL    HW2  219   1.475   2.928   2.735
   55SOL     MW  220   1.522   2.914   2.662
   56SOL     OW  221   2.256   2.806   2.466
   56SOL    HW1  222   2.233   2.878   2.524
   56SOL    HW2  223   2.352   2.806   2.465
   56SOL     MW  224   2.266   2.815   2.473
   57SOL     OW  225   1.799   2.608   0.631
   57SOL    HW1  226   1.746   2.532   0.605
   57SOL    HW2  227   1.880   2.598   0.582
   57SOL     MW  228   1.802   2.597   0.621
   58SOL     OW  229   1.232   0.126   2.152
   58SOL    HW1  230   1.183   0.076   2.087
   58SOL    HW2  231   1.172   0.136   2.225
   58SOL     MW  232   1.218   0.121   2.153
   59SOL     OW  233   1.191   1.723   2.842
   59SOL    HW1  234   1.226   1.808   2.870
   59SOL    HW2  235   1.261   1.661   2.861
   59SOL     MW  236   1.204   1.726   2.848
   60SOL     OW  237   0.038   2.579   3.013
   60SOL    HW1  238  -0.007   2.649   2.967
   60SOL    HW2  239   0.113   2.622   3.054
   60SOL     MW  240   0.042   2.593   3.012
   61SOL     OW  241   0.612   0.058   2.557
   61SOL    HW1  242   0.637   0.085   2.469
   61SOL    HW2  243   0.601   0.141   2.605
   61SOL     MW  244   0.614   0.072   2.552
   62SOL     OW  245   1.023   2.323   0.352
   62SOL    HW1  246   0.981   2.299   0.434
   62SOL    HW2  247   1.015   2.245   0.297
   62SOL     MW  248   1.016   2.310   0.355
   63SOL     OW  249   0.506   0.218   1.126
   63SOL    HW1  250   0.574   0.184   1.184
   63SOL    HW2  251   0.553   0.276   1.065
   63SOL     MW  252   0.521   0.221   1.126
   64SOL     OW  253   1.133   2.733   1.310
   64SOL    HW1  254   1.113   2.803   1.248
   64SOL    HW2  255   1.115   2.772   1.396
   64SOL     MW  256   1.128   2.747   1.313
   65SOL     OW  257   1.567   1.369   0.715
   65SOL    HW1  258   1.560   1.408   0.802
   65SOL    HW2  259   1.478   1.339   0.695
   65SOL     MW  260   1.555   1.370   0.723
   66SOL     OW  261   2.729   1.515   1.943
   66SOL    HW1  262   2.768   1.582   2.000
   66SOL    HW2  263   2.638   1.542   1.933
   66SOL     MW  264   2.722   1.527   1.949
   67SOL     OW  265   1.481   1.254   0.029
   67SOL    HW1  266   1.533   1.199  -0.029
   67SOL    HW2  267   1.536   1.329   0.047
   67SOL     MW  268   1.494   1.256   0.024
   68SOL     OW  269   2.780   0.170   1.788
   68SOL    HW1  270   2.842   0.236   1.757
   68SOL    HW2  271   2.717   0.218   1.841
   68SOL     MW  272   2.780   0.185   1.791
   69SOL     OW  273   0.715   0.704   1.736
   69SOL    HW1  274   0.735   0.613   1.714
   69SOL    HW2  275   0.790   0.754   1.704
   69SOL     MW  276   0.727   0.699   1.729
   70SOL     OW  277   0.005   2.135   2.342
   70SOL    HW1  278  -0.027   2.223   2.362
   70SOL    HW2  279   0.036   2.141   2.252
   70SOL     MW  280   0.005   2.147   2.333
   71SOL     OW  281   0.689   2.018   1.913
   71SOL    HW1  282   0.658   1.927   1.914
   71SOL    HW2  283   0.629   2.063   1.853
   71SOL     MW  284   0.677   2.012   1.905
   72SOL     OW  285   0.450   1.064   1.556
   72SOL    HW1  286   0.511   1.081   1.485
   72SOL    HW2  287   0.412   1.150   1.576
   72SOL     MW  288   0.453   1.077   1.549
   73SOL     OW  289   2.249   2.052   1.894
   73SOL    HW1  290   2.196   1.977   1.922
   73SOL    HW2  291   2.192   2.101   1.835
   73SOL     MW  292   2.235   2.049   1.890
   74SOL     OW  293   2.528   2.470   1.227
   74SOL    HW1  294   2.456   2.412   1.250
   74SOL    HW2  295   2.607   2.417   1.242
   74SOL     MW  296   2.529   2.456   1.232
   75SOL     OW  297   1.730   1.923   3.195
   75SOL    HW1  298   1.725   1.857   3.263
   75SOL    HW2  299   1.802   1.896   3.139
   75SOL     MW  300   1.738   1.911   3.196
   76SOL     OW  301   1.549   1.870   2.468
   76SOL    HW1  302   1.644   1.871   2.456
   76SOL    HW2  303   1.514   1.906   2.386
   76SOL     MW  304   1.557   1.875   2.456
   77SOL     OW  305   0.513   1.768   2.575
   77SOL    HW1  306   0.485   1.857   2.556
   77SOL    HW2  307   0.433   1.722   2.601
   77SOL     MW  308   0.499   1.774   2.576
   78SOL     OW  309   3.009   1.773   1.596
   78SOL    HW1  310   2.936   1.722   1.631
   78SOL    HW2  311   3.003   1.857   1.641
   78SOL     MW  312   2.999   1.777   1.607
   79SOL     OW  313   1.500   2.296   1.867
   79SOL    HW1  314   1.472   2.210   1.897
   79SOL    HW2  315   1.452   2.309   1.785
   79SOL     MW  316   1.490   2.287   1.860
   80SOL     OW  317   3.230   1.110   0.204
   80SOL    HW1  318   3.154   1.167   0.219
   80SOL    HW2  319   3.195   1.038   0.151
   80SOL     MW  320   3.216   1.108   0.199
   81SOL     OW  321   0.358   2.139   0.398
   81SOL    HW1  322   0.269   2.106   0.385
   81SOL    HW2  323   0.357   2.175   0.486
   81SOL     MW  324   0.347   2.139   0.407
   82SOL     OW  325   1.840   1.947   0.792
   82SOL    HW1  326   1.906   1.893   0.750
   82SOL    HW2  327   1.764   1.943   0.733
   82SOL     MW  328   1.838   1.940   0.779
   83SOL     OW  329   0.952   1.418   1.803
   83SOL    HW1  330   1.027   1.477   1.798
   83SOL    HW2  331   0.951   1.389   1.894
   83SOL     MW  332   0.961   1.422   1.814
   84SOL     OW  333   2.247   0.706   1.713
   84SOL    HW1  334   2.153   0.721   1.723
   84SOL    HW2  335   2.253   0.647   1.638
   84SOL     MW  336   2.235   0.700   1.704
   85SOL     OW  337   2.571   2.863   1.915
   85SOL    HW1  338   2.656   2.820   1.905
   85SOL    HW2  339   2.591   2.945   1.961
   85SOL     MW  340   2.584   2.868   1.919
   86SOL     OW  341   2.637   2.754   1.548
   86SOL    HW1  342   2.645   2.685   1.614
   86SOL    HW2  343   2.631   2.835   1.599
   86SOL     MW  344   2.638   2.756   1.563
   87SOL     OW  345   1.854   1.017   2.137
   87SOL    HW1  346   1.865   0.925   2.113
   87SOL    HW2  347   1.788   1.016   2.207
   87SOL     MW  348   1.847   1.005   2.143
   88SOL     OW  349   0.989   2.498   1.339
   88SOL    HW1  350   1.004   2.446   1.260
   88SOL    HW2  351   1.030   2.583   1.319
   88SOL     MW  352   0.997   2.502   1.326
   89SOL     OW  353   2.581   1.767   2.077
   89SOL    HW1  354   2.539   1.706   2.139
   89SOL    HW2  355   2.518   1.776   2.006
   89SOL     MW  356   2.567   1.760   2.076
   90SOL     OW  357   2.053   1.164   1.695
   90SOL    HW1  358   2.142   1.128   1.692
   90SOL    HW2  359   2.024   1.151   1.785
   90SOL     MW  360   2.061   1.158   1.706
   91SOL     OW  361   2.498   2.872   2.973
   91SOL    HW1  362   2.415   2.908   3.005
   91SOL    HW2  363   2.475   2.830   2.890
   91SOL     MW  364   2.484   2.871   2.967
   92SOL     OW  365   1.535   2.903   0.926
   92SOL    HW1  366   1.588   2.835   0.968
   92SOL    HW2  367   1.445   2.873   0.936
   92SOL     MW  368   1.530   2.891   0.933
   93SOL     OW  369   2.880   0.349   2.145
   93SOL    HW1  370   2.890   0.370   2.052
   93SOL    HW2  371   2.846   0.259   2.146
   93SOL     MW  372   2.877   0.340   2.133
   94SOL     OW  373   2.701   2.005   2.955
   94SOL    HW1  374   2.735   2.041   2.873
   94SOL    HW2  375   2.775   1.959   2.994
   94SOL     MW  376   2.715   2.004   2.949
   95SOL     OW  377   2.107   0.395   2.406
   95SOL    HW1  378   2.179   0.440   2.362
   95SOL    HW2  379   2.122   0.410   2.499
   95SOL     MW  380   2.118   0.403   2.412
   96SOL     OW  381   3.170   1.308   0.502
   96SOL    HW1  382   3.190   1.400   0.482
   96SOL    HW2  383   3.130   1.274   0.423
   96SOL     MW  384   3.167   1.316   0.489
   97SOL     OW  385   1.898   1.429   1.029
   97SOL    HW1  386   1.977   1.446   1.079
   97SOL    HW2  387   1.830   1.480   1.073
   97SOL     MW  388   1.899   1.438   1.041
   98SOL     OW  389   1.112   0.893   0.736
   98SOL    HW1  390   1.123   0.974   0.787
   98SOL    HW2  391   1.163   0.828   0.785
   98SOL     MW  392   1.120   0.895   0.749
   99SOL     OW  393   2.561   2.202   0.987
   99SOL    HW1  394   2.490   2.261   0.964
   99SOL    HW2  395   2.527   2.151   1.061
   99SOL     MW  396   2.548   2.203   0.994
  100SOL     OW  397   2.173   0.131   2.415
  100SOL    HW1  398   2.097   0.078   2.440
  100SOL    HW2  399   2.139   0.219   2.403
  100SOL     MW  400   2.159   0.135   2.417
  101SOL     OW  401   0.221   2.419   2.878
  101SOL    HW1  402   0.158   2.476   2.921
  101SOL    HW2  403   0.253   2.362   2.948
  101SOL     MW  404   0.217   2.419   2.892
  102SOL     OW  405   2.108   0.653   2.219
  102SOL    HW1  406   2.106   0.577   2.161
  102SOL    HW2  407   2.193   0.648   2.262
  102SOL     MW  408   2.119   0.643   2.217
  103SOL     OW  409   1.448   0.662   0.700
  103SOL    HW1  410   1.419   0.642   0.611
  103SOL    HW2  411   1.499   0.586   0.727
  103SOL     MW  412   1.451   0.650   0.692
  104SOL     OW  413   2.930   2.987   1.977
  104SOL    HW1  414   2.872   2.960   2.049
  104SOL    HW2  415   3.003   3.032   2.020
  104SOL     MW  416   2.932   2.989   1.992
  105SOL     OW  417   3.047   3.030   2.579
  105SOL    HW1  418   3.093   3.109   2.552
  105SOL    HW2  419   2.991   3.058   2.652
  105SOL     MW  420   3.046   3.044   2.585
  106SOL     OW  421   2.866   1.406   0.765
  106SOL    HW1  422   2.777   1.388   0.795
  106SOL    HW2  423   2.859   1.491   0.721
  106SOL     MW  424   2.854   1.415   0.763
  107SOL     OW  425   1.690   2.165   1.728
  107SOL    HW1  426   1.663   2.073   1.738
  107SOL    HW2  427   1.621   2.215   1.772
  107SOL     MW  428   1.678   2.159   1.735
  108SOL     OW  429   2.810   2.327   1.012
  108SOL    HW1  430   2.725   2.283   1.019
  108SOL    HW2  431   2.792   2.407   0.963
  108SOL     MW  432   2.797   2.331   1.007
  109SOL     OW  433   0.569   0.806   2.721
  109SOL    HW1  434   0.485   0.845   2.743
  109SOL    HW2  435   0.550   0.712   2.713
  109SOL     MW  436   0.556   0.799   2.722
  110SOL     OW  437   0.667   2.778   0.756
  110SOL    HW1  438   0.669   2.734   0.671
  110SOL    HW2  439   0.711   2.862   0.740
  110SOL     MW  440   0.673   2.783   0.743
  111SOL     OW  441   1.739   2.257   1.468
  111SOL    HW1  442   1.776   2.185   1.417
  111SOL    HW2  443   1.702   2.215   1.546
  111SOL     MW  444   1.739   2.242   1.471
  112SOL     OW  445   2.613   0.297   1.974
  112SOL    HW1  446   2.650   0.242   2.042
  112SOL    HW2  447   2.518   0.296   1.990
  112SOL     MW  448   2.605   0.290   1.985
  113SOL     OW  449   0.988   0.299   0.561
  113SOL    HW1  450   1.045   0.375   0.570
  113SOL    HW2  451   0.950   0.308   0.473
  113SOL     MW  452   0.990   0.310   0.551
  114SOL     OW  453   0.340   2.369   0.248
  114SOL    HW1  454   0.249   2.370   0.220
  114SOL    HW2  455   0.350   2.287   0.296
  114SOL     MW  456   0.330   2.358   0.250
  115SOL     OW  457   2.484   1.254   0.425
  115SOL    HW1  458   2.479   1.349   0.413
  115SOL    HW2  459   2.569   1.230   0.389
  115SOL     MW  460   2.494   1.263   0.419
  116SOL     OW  461   2.349   0.255   2.050
  116SOL    HW1  462   2.346   0.173   2.002
  116SOL    HW2  463   2.373   0.230   2.139
  116SOL     MW  464   2.352   0.242   2.055
  117SOL     OW  465   1.991   0.129   0.808
  117SOL    HW1  466   2.048   0.180   0.866
  117SOL    HW2  467   1.910   0.119   0.858
  117SOL     MW  468   1.988   0.135   0.822
  118SOL     OW  469   0.845   2.444   0.976
  118SOL    HW1  470   0.761   2.419   1.015
  118SOL    HW2  471   0.911   2.403   1.032
  118SOL     MW  472   0.843   2.436   0.988
  119SOL     OW  473   0.997   1.002   2.390
  119SOL    HW1  474   1.059   1.022   2.320
  119SOL    HW2  475   0.919   0.971   2.345
  119SOL     MW  476   0.995   1.001   2.375
  120SOL     OW  477   0.127   0.482   2.136
  120SOL    HW1  478   0.165   0.567   2.114
  120SOL    HW2  479   0.083   0.454   2.056
  120SOL     MW  480   0.126   0.490   2.123
  121SOL     OW  481   0.030   0.573   2.931
  121SOL    HW1  482   0.082   0.563   3.011
  121SOL    HW2  483  -0.020   0.492   2.925
  121SOL     MW  484   0.030   0.562   2.941
  122SOL     OW  485   1.075   3.046   1.717
  122SOL    HW1  486   1.063   3.108   1.645
  122SOL    HW2  487   0.989   3.042   1.759
  122SOL     MW  488   1.062   3.054   1.713
  123SOL     OW  489   1.799   2.546   1.884
  123SOL    HW1  490   1.818   2.531   1.791
  123SOL    HW2  491   1.710   2.582   1.884
  123SOL     MW  492   1.790   2.548   1.872
  124SOL     OW  493   1.482   1.480   1.758
  124SOL    HW1  494   1.426   1.433   1.696
  124SOL    HW2  495   1.571   1.467   1.725
  124SOL     MW  496   1.486   1.472   1.745
  125SOL     OW  497   2.482   0.470   3.008
  125SOL    HW1  498   2.543   0.541   3.022
  125SOL    HW2  499   2.454   0.443   3.096
  125SOL     MW  500   2.486   0.475   3.021
  126SOL     OW  501   0.940   0.352   2.451
  126SOL    HW1  502   0.980   0.348   2.538
  126SOL    HW2  503   1.003   0.401   2.398
  126SOL     MW  504   0.953   0.358   2.456
  127SOL     OW  505   1.696   1.543   1.172
  127SOL    HW1  506   1.655   1.484   1.235
  127SOL    HW2  507   1.635   1.547   1.098
  127SOL     MW  508   1.683   1.536   1.171
  128SOL     OW  509   0.617   1.599   2.382
  128SOL    HW1  510   0.574   1.660   2.442
  128SOL    HW2  511   0.700   1.578   2.425
  128SOL     MW  512   0.622   1.604   2.395
  129SOL     OW  513   2.406   0.608   2.591
  129SOL    HW1  514   2.381   0.689   2.635
  129SOL    HW2  515   2.499   0.620   2.570
  129SOL     MW  516   2.415   0.620   2.594
  130SOL     OW  517   1.236   0.166   2.812
  130SOL    HW1  518   1.276   0.186   2.896
  130SOL    HW2  519   1.210   0.074   2.819
  130SOL     MW  520   1.238   0.157   2.824
  131SOL     OW  521   3.077   2.743   2.853
  131SOL    HW1  522   3.139   2.781   2.790
  131SOL    HW2  523   3.017   2.691   2.799
  131SOL     MW  524   3.078   2.741   2.838
  132SOL     OW  525   1.836   1.480   2.803
  132SOL    HW1  526   1.751   1.440   2.821
  132SOL    HW2  527   1.820   1.537   2.728
  132SOL     MW  528   1.823   1.482   2.796
  133SOL     OW  529   0.595   2.189   0.166
  133SOL    HW1  530   0.666   2.236   0.122
  133SOL    HW2  531   0.602   2.215   0.258
  133SOL     MW  532   0.605   2.199   0.172
  134SOL     OW  533   2.706   2.481   1.632
  134SOL    HW1  534   2.764   2.494   1.557
  134SOL    HW2  535   2.621   2.460   1.593
  134SOL     MW  536   2.703   2.480   1.618
  135SOL     OW  537   1.410   1.562   2.897
  135SOL    HW1  538   1.473   1.613   2.846
  135SOL    HW2  539   1.425   1.590   2.988
  135SOL     MW  540   1.420   1.572   2.902
  136SOL     OW  541   0.127   2.015   2.564
  136SOL    HW1  542   0.217   1.996   2.536
  136SOL    HW2  543   0.084   2.051   2.486
  136SOL     MW  544   0.133   2.017   2.551
  137SOL     OW  545   0.050   1.856   1.214
  137SOL    HW1  546  -0.041   1.860   1.183
  137SOL    HW2  547   0.102   1.875   1.136
  137SOL     MW  548   0.045   1.859   1.200
  138SOL     OW  549   1.612   0.555   1.406
  138SOL    HW1  550   1.622   0.639   1.451
  138SOL    HW2  551   1.532   0.518   1.442
  138SOL     MW  552   1.603   0.561   1.416
  139SOL     OW  553   0.149   2.686   2.276
  139SOL    HW1  554   0.072   2.698   2.331
  139SOL    HW2  555   0.120   2.709   2.188
  139SOL     MW  556   0.136   2.691   2.272
  140SOL     OW  557   1.304   2.678   1.969
  140SOL    HW1  558   1.283   2.721   2.052
  140SOL    HW2  559   1.227   2.692   1.914
  140SOL     MW  560   1.292   2.685   1.973
  141SOL     OW  561   1.866   0.295   0.425
  141SOL    HW1  562   1.780   0.257   0.440
  141SOL    HW2  563   1.886   0.275   0.334
  141SOL     MW  564   1.858   0.288   0.415
  142SOL     OW  565   2.274   2.099   0.264
  142SOL    HW1  566   2.355   2.135   0.300
  142SOL    HW2  567   2.300   2.015   0.226
  142SOL     MW  568   2.288   2.093   0.264
  143SOL     OW  569   1.927   2.201   0.768
  143SOL    HW1  570   1.892   2.112   0.769
  143SOL    HW2  571   2.014   2.194   0.808
  143SOL     MW  572   1.934   2.189   0.773
  144SOL     OW  573   1.158   2.979   2.551
  144SOL    HW1  574   1.136   2.892   2.583
  144SOL    HW2  575   1.154   3.035   2.629
  144SOL     MW  576   1.155   2.975   2.566
  145SOL     OW  577   0.939   2.022   1.815
  145SOL    HW1  578   0.850   2.022   1.850
  145SOL    HW2  579   0.946   1.938   1.768
  145SOL     MW  580   0.929   2.011   1.813
  146SOL     OW  581   2.208   2.621   1.934
  146SOL    HW1  582   2.265   2.658   2.001
  146SOL    HW2  583   2.179   2.537   1.971
  146SOL     MW  584   2.212   2.615   1.948
  147SOL     OW  585   0.515   3.080   0.477
  147SOL    HW1  586   0.606   3.102   0.497
  147SOL    HW2  587   0.475   3.063   0.562
  147SOL     MW  588   0.522   3.081   0.490
  148SOL     OW  589   0.861   1.599   2.510
  148SOL    HW1  590   0.909   1.678   2.485
  148SOL    HW2  591   0.928   1.531   2.516
  148SOL     MW  592   0.876   1.601   2.507
  149SOL     OW  593   1.723   0.184   2.275
  149SOL    HW1  594   1.683   0.203   2.360
  149SOL    HW2  595   1.706   0.091   2.261
  149SOL     MW  596   1.716   0.174   2.284
  150SOL     OW  597   1.021   0.550   2.846
  150SOL    HW1  598   1.038   0.556   2.940
  150SOL    HW2  599   0.946   0.608   2.831
  150SOL     MW  600   1.014   0.558   2.856
  151SOL     OW  601   2.067   0.512   0.718
  151SOL    HW1  602   2.095   0.602   0.733
  151SOL    HW2  603   2.114   0.485   0.639
  151SOL     MW  604   2.077   0.520   0.710
  152SOL     OW  605   0.207   2.644   1.154
  152SOL    HW1  606   0.137   2.612   1.096
  152SOL    HW2  607   0.198   2.739   1.151
  152SOL     MW  608   0.197   2.652   1.146
  153SOL     OW  609   0.468   1.289   2.967
  153SOL    HW1  610   0.464   1.247   2.881
  153SOL    HW2  611   0.379   1.279   3.001
  153SOL     MW  612   0.456   1.282   2.960
  154SOL     OW  613   1.616   1.995   0.628
  154SOL    HW1  614   1.634   1.989   0.534
  154SOL    HW2  615   1.564   2.074   0.638
  154SOL     MW  616   1.612   2.004   0.618
  155SOL     OW  617   0.885   2.370   2.804
  155SOL    HW1  618   0.944   2.363   2.879
  155SOL    HW2  619   0.918   2.305   2.742
  155SOL     MW  620   0.897   2.361   2.805
  156SOL     OW  621   0.196   1.908   0.983
  156SOL    HW1  622   0.184   1.846   0.912
  156SOL    HW2  623   0.291   1.909   0.999
  156SOL     MW  624   0.207   1.900   0.976
  157SOL     OW  625   2.525   2.192   0.352
  157SOL    HW1  626   2.539   2.213   0.260
  157SOL    HW2  627   2.609   2.211   0.394
  157SOL     MW  628   2.538   2.197   0.346
  158SOL     OW  629   2.969   1.357   2.251
  158SOL    HW1  630   3.050   1.383   2.207
  158SOL    HW2  631   2.951   1.429   2.311
  158SOL     MW  632   2.977   1.369   2.253
  159SOL     OW  633   1.233   2.384   1.397
  159SOL    HW1  634   1.146   2.425   1.397
  159SOL    HW2  635   1.283   2.434   1.332
  159SOL     MW  636   1.228   2.396   1.389
  160SOL     OW  637   0.980   2.540   3.192
  160SOL    HW1  638   0.939   2.606   3.137
  160SOL    HW2  639   0.908   2.483   3.220
  160SOL     MW  640   0.966   2.541   3.189
  161SOL     OW  641   0.311   0.918   2.766
  161SOL    HW1  642   0.288   0.874   2.684
  161SOL    HW2  643   0.231   0.965   2.791
  161SOL     MW  644   0.298   0.918   2.759
  162SOL     OW  645   1.895   1.054   0.843
  162SOL    HW1  646   1.808   1.094   0.838
  162SOL    HW2  647   1.879   0.966   0.876
  162SOL     MW  648   1.881   1.048   0.846
  163SOL     OW  649   1.499   1.375   2.477
  163SOL    HW1  650   1.462   1.322   2.406
  163SOL    HW2  651   1.586   1.337   2.492
  163SOL     MW  652   1.506   1.363   2.470
  164SOL     OW  653   0.636   2.539   2.186
  164SOL    HW1  654   0.707   2.599   2.208
  164SOL    HW2  655   0.556   2.588   2.208
  164SOL     MW  656   0.635   2.553   2.191
  165SOL     OW  657   1.115   0.413   0.124
  165SOL    HW1  658   1.144   0.326   0.150
  165SOL    HW2  659   1.186   0.471   0.150
  165SOL     MW  660   1.127   0.410   0.131
  166SOL     OW  661   0.362   2.278   2.427
  166SOL    HW1  662   0.298   2.328   2.376
  166SOL    HW2  663   0.331   2.285   2.517
  166SOL     MW  664   0.350   2.286   2.432
  167SOL     OW  665   2.868   2.289   3.008
  167SOL    HW1  666   2.858   2.232   2.933
  167SOL    HW2  667   2.793   2.350   3.002
  167SOL     MW  668   2.857   2.290   2.998
  168SOL     OW  669   1.087   2.602   2.408
  168SOL    HW1  670   1.000   2.563   2.397
  168SOL    HW2  671   1.145   2.527   2.420
  168SOL     MW  672   1.083   2.587   2.408
  169SOL     OW  673   1.939   2.383   0.333
  169SOL    HW1  674   1.971   2.465   0.372
  169SOL    HW2  675   1.848   2.401   0.312
  169SOL     MW  676   1.932   2.396   0.335
  170SOL     OW  677   2.763   0.731   0.456
  170SOL    HW1  678   2.715   0.813   0.443
  170SOL    HW2  679   2.720   0.668   0.398
  170SOL     MW  680   2.751   0.734   0.447
  171SOL     OW  681   2.937   1.380   3.123
  171SOL    HW1  682   3.031   1.364   3.120
  171SOL    HW2  683   2.903   1.342   3.042
  171SOL     MW  684   2.945   1.373   3.112
  172SOL     OW  685   2.526   0.988   1.617
  172SOL    HW1  686   2.445   0.993   1.666
  172SOL    HW2  687   2.574   1.068   1.640
  172SOL     MW  688   2.522   0.999   1.626
  173SOL     OW  689   1.253   1.497   0.940
  173SOL    HW1  690   1.222   1.551   1.013
  173SOL    HW2  691   1.175   1.456   0.905
  173SOL     MW  692   1.239   1.499   0.945
  174SOL     OW  693   0.474   0.070   0.278
  174SOL    HW1  694   0.476   0.010   0.352
  174SOL    HW2  695   0.557   0.054   0.232
  174SOL     MW  696   0.485   0.060   0.282
  175SOL     OW  697   2.280   3.004   3.064
  175SOL    HW1  698   2.273   3.069   2.994
  175SOL    HW2  699   2.302   3.055   3.142
  175SOL     MW  700   2.282   3.019   3.065
  176SOL     OW  701   2.460   2.052   0.575
  176SOL    HW1  702   2.480   2.110   0.502
  176SOL    HW2  703   2.457   1.964   0.536
  176SOL     MW  704   2.462   2.048   0.561
  177SOL     OW  705   1.676   2.457   0.302
  177SOL    HW1  706   1.585   2.435   0.285
  177SOL    HW2  707   1.698   2.523   0.237
  177SOL     MW  708   1.668   2.462   0.291
  178SOL     OW  709   1.449   1.108   0.501
  178SOL    HW1  710   1.419   1.138   0.416
  178SOL    HW2  711   1.438   1.013   0.498
  178SOL     MW  712   1.443   1.099   0.490
  179SOL     OW  713   3.027   0.249   2.675
  179SOL    HW1  714   2.941   0.237   2.716
  179SOL    HW2  715   3.021   0.333   2.630
  179SOL     MW  716   3.015   0.259   2.675
  180SOL     OW  717   1.021   2.056   2.975
  180SOL    HW1  718   1.023   2.150   2.995
  180SOL    HW2  719   0.970   2.050   2.894
  180SOL     MW  720   1.015   2.067   2.967
  181SOL     OW  721   0.855   3.081   1.874
  181SOL    HW1  722   0.797   3.150   1.843
  181SOL    HW2  723   0.920   3.126   1.928
  181SOL     MW  724   0.856   3.096   1.877
  182SOL     OW  725   0.474   1.734   1.298
  182SOL    HW1  726   0.390   1.719   1.254
  182SOL    HW2  727   0.463   1.693   1.384
  182SOL     MW  728   0.462   1.727   1.304
  183SOL     OW  729   1.109   1.894   0.079
  183SOL    HW1  730   1.194   1.902   0.035
  183SOL    HW2  731   1.054   1.849   0.015
  183SOL     MW  732   1.113   1.889   0.065
  184SOL     OW  733   3.067   2.467   1.845
  184SOL    HW1  734   2.972   2.474   1.845
  184SOL    HW2  735   3.096   2.528   1.778
  184SOL     MW  736   3.059   2.476   1.837
  185SOL     OW  737   2.770   2.241   0.449
  185SOL    HW1  738   2.822   2.176   0.496
  185SOL    HW2  739   2.835   2.290   0.397
  185SOL     MW  740   2.785   2.239   0.448
  186SOL     OW  741   2.761   0.540   1.628
  186SOL    HW1  742   2.829   0.474   1.646
  186SOL    HW2  743   2.810   0.616   1.597
  186SOL     MW  744   2.776   0.541   1.626
  187SOL     OW  745   0.171   1.572   1.833
  187SOL    HW1  746   0.076   1.574   1.824
  187SOL    HW2  747   0.194   1.480   1.826
  187SOL     MW  748   0.162   1.561   1.831
  188SOL     OW  749   1.995   1.441   0.776
  188SOL    HW1  750   2.031   1.353   0.760
  188SOL    HW2  751   1.948   1.433   0.859
  188SOL     MW  752   1.993   1.429   0.785
  189SOL     OW  753   0.520   1.027   0.946
  189SOL    HW1  754   0.578   0.967   0.898
  189SOL    HW2  755   0.573   1.105   0.960
  189SOL     MW  756   0.534   1.029   0.942
  190SOL     OW  757   2.512   2.941   2.256
  190SOL    HW1  758   2.459   2.879   2.206
  190SOL    HW2  759   2.520   2.901   2.343
  190SOL     MW  760   2.507   2.928   2.260
  191SOL     OW  761   2.036   2.590   0.487
  191SOL    HW1  762   2.081   2.592   0.572
  191SOL    HW2  763   2.034   2.682   0.460
  191SOL     MW  764   2.042   2.602   0.495
  192SOL     OW  765   2.538   1.122   0.655
  192SOL    HW1  766   2.513   1.179   0.582
  192SOL    HW2  767   2.456   1.083   0.685
  192SOL     MW  768   2.525   1.125   0.649
  193SOL     OW  769   0.672   2.206   1.314
  193SOL    HW1  770   0.604   2.139   1.309
  193SOL    HW2  771   0.647   2.271   1.248
  193SOL     MW  772   0.660   2.205   1.305
  194SOL     OW  773   1.927   0.232   0.164
  194SOL    HW1  774   1.976   0.158   0.129
  194SOL    HW2  775   1.973   0.309   0.130
  194SOL     MW  776   1.939   0.233   0.155
  195SOL     OW  777   1.879   2.279   1.889
  195SOL    HW1  778   1.814   2.230   1.839
  195SOL    HW2  779   1.834   2.360   1.913
  195SOL     MW  780   1.865   2.283   1.885
  196SOL     OW  781   2.057   2.604   0.972
  196SOL    HW1  782   1.969   2.581   0.943
  196SOL    HW2  783   2.084   2.531   1.027
  196SOL     MW  784   2.049   2.592   0.976
  197SOL     OW  785   3.137   2.691   2.449
  197SOL    HW1  786   3.179   2.739   2.521
  197SOL    HW2  787   3.072   2.752   2.414
  197SOL     MW  788   3.134   2.705   2.454
  198SOL     OW  789   2.380   1.090   2.713
  198SOL    HW1  790   2.408   1.157   2.776
  198SOL    HW2  791   2.324   1.137   2.652
  198SOL     MW  792   2.376   1.105   2.713
  199SOL     OW  793   1.217   0.707   1.525
  199SOL    HW1  794   1.257   0.777   1.576
  199SOL    HW2  795   1.274   0.632   1.537
  199SOL     MW  796   1.229   0.706   1.533
  200SOL     OW  797   1.267   2.397   2.414
  200SOL    HW1  798   1.323   2.342   2.470
  200SOL    HW2  799   1.328   2.437   2.352
  200SOL     MW  800   1.282   2.395   2.413
  201SOL     OW  801   2.006   1.079   2.878
  201SOL    HW1  802   2.025   1.163   2.837
  201SOL    HW2  803   2.038   1.014   2.815
  201SOL     MW  804   2.013   1.081   2.864
  202SOL     OW  805   1.080   0.494   1.979
  202SOL    HW1  806   0.987   0.474   1.965
  202SOL    HW2  807   1.095   0.473   2.072
  202SOL     MW  808   1.070   0.489   1.989
  203SOL     OW  809   1.319   1.900   1.547
  203SOL    HW1  810   1.331   1.835   1.615
  203SOL    HW2  811   1.233   1.880   1.509
  203SOL     MW  812   1.310   1.889   1.551
  204SOL     OW  813   2.761   0.328   0.455
  204SOL    HW1  814   2.758   0.354   0.547
  204SOL    HW2  815   2.852   0.342   0.430
  204SOL     MW  816   2.772   0.333   0.464
  205SOL     OW  817   1.628   0.873   0.716
  205SOL    HW1  818   1.672   0.852   0.798
  205SOL    HW2  819   1.562   0.804   0.706
  205SOL     MW  820   1.625   0.861   0.726
  206SOL     OW  821   2.069   0.729   1.053
  206SOL    HW1  822   2.031   0.782   1.123
  206SOL    HW2  823   2.163   0.731   1.070
  206SOL     MW  824   2.076   0.736   1.064
  207SOL     OW  825   0.574   2.911   1.546
  207SOL    HW1  826   0.556   2.884   1.456
  207SOL    HW2  827   0.615   2.997   1.539
  207SOL     MW  828   0.577   2.918   1.534
  208SOL     OW  829   0.537   2.512   0.119
  208SOL    HW1  830   0.494   2.597   0.129
  208SOL    HW2  831   0.473   2.449   0.152
  208SOL     MW  832   0.523   2.515   0.124
  209SOL     OW  833   1.766   0.164   1.545
  209SOL    HW1  834   1.709   0.184   1.470
  209SOL    HW2  835   1.842   0.121   1.506
  209SOL     MW  836   1.768   0.161   1.530
  210SOL     OW  837   1.295   2.103   1.728
  210SOL    HW1  838   1.307   2.187   1.684
  210SOL    HW2  839   1.300   2.038   1.658
  210SOL     MW  840   1.297   2.106   1.714
  211SOL     OW  841   1.618   0.177   0.445
  211SOL    HW1  842   1.627   0.154   0.353
  211SOL    HW2  843   1.539   0.230   0.449
  211SOL     MW  844   1.609   0.181   0.434
  212SOL     OW  845   2.635   1.831   0.237
  212SOL    HW1  846   2.705   1.874   0.187
  212SOL    HW2  847   2.655   1.738   0.229
  212SOL     MW  848   2.647   1.824   0.229
  213SOL     OW  849   2.727   0.116   2.150
  213SOL    HW1  850   2.705   0.043   2.093
  213SOL    HW2  851   2.700   0.087   2.238
  213SOL     MW  852   2.721   0.103   2.154
  214SOL     OW  853   2.197   2.580   1.321
  214SOL    HW1  854   2.175   2.526   1.397
  214SOL    HW2  855   2.282   2.619   1.344
  214SOL     MW  856   2.205   2.578   1.334
  215SOL     OW  857   0.859   2.846   2.662
  215SOL    HW1  858   0.821   2.915   2.717
  215SOL    HW2  859   0.813   2.766   2.688
  215SOL     MW  860   0.848   2.845   2.672
  216SOL     OW  861   0.359   1.764   0.314
  216SOL    HW1  862   0.429   1.829   0.305
  216SOL    HW2  863   0.353   1.747   0.408
  216SOL     MW  864   0.367   1.770   0.325
  217SOL     OW  865   0.298   2.949   2.567
  217SOL    HW1  866   0.353   2.922   2.494
  217SOL    HW2  867   0.344   2.918   2.645
  217SOL     MW  868   0.311   2.941   2.568
  218SOL     OW  869   0.764   0.761   0.230
  218SOL    HW1  870   0.793   0.730   0.144
  218SOL    HW2  871   0.740   0.853   0.216
  218SOL     MW  872   0.765   0.769   0.217
  219SOL     OW  873   2.487   1.518   0.384
  219SOL    HW1  874   2.505   1.558   0.469
  219SOL    HW2  875   2.568   1.531   0.334
  219SOL     MW  876   2.500   1.525   0.388
  220SOL     OW  877   0.114   0.658   0.268
  220SOL    HW1  878   0.033   0.645   0.218
  220SOL    HW2  879   0.176   0.596   0.230
  220SOL     MW  880   0.112   0.648   0.257
  221SOL     OW  881   0.817   0.450   1.924
  221SOL    HW1  882   0.731   0.414   1.944
  221SOL    HW2  883   0.819   0.457   1.829
  221SOL     MW  884   0.806   0.446   1.914
  222SOL     OW  885   1.782   2.142   0.148
  222SOL    HW1  886   1.878   2.154   0.149
  222SOL    HW2  887   1.768   2.068   0.089
  222SOL     MW  888   1.793   2.134   0.141
  223SOL     OW  889   2.014   0.572   1.469
  223SOL    HW1  890   1.966   0.610   1.395
  223SOL    HW2  891   1.950   0.514   1.512
  223SOL     MW  892   2.000   0.569   1.465
  224SOL     OW  893   0.168   0.278   3.054
  224SOL    HW1  894   0.084   0.286   3.009
  224SOL    HW2  895   0.186   0.366   3.088
  224SOL     MW  896   0.160   0.290   3.053
  225SOL     OW  897   1.866   2.422   1.640
  225SOL    HW1  898   1.831   2.364   1.573
  225SOL    HW2  899   1.889   2.363   1.713
  225SOL     MW  900   1.864   2.407   1.641
  226SOL     OW  901   1.406   2.402   0.296
  226SOL    HW1  902   1.339   2.421   0.230
  226SOL    HW2  903   1.374   2.325   0.342
  226SOL     MW  904   1.393   2.395   0.293
  227SOL     OW  905   2.535   2.812   2.494
  227SOL    HW1  906   2.512   2.799   2.586
  227SOL    HW2  907   2.610   2.754   2.480
  227SOL     MW  908   2.542   2.803   2.504
  228SOL     OW  909   0.056   1.578   0.104
  228SOL    HW1  910   0.149   1.597   0.089
  228SOL    HW2  911   0.052   1.555   0.197
  228SOL     MW  912   0.067   1.578   0.114
  229SOL     OW  913   3.103   1.615   1.812
  229SOL    HW1  914   3.085   1.661   1.730
  229SOL    HW2  915   3.074   1.675   1.880
  229SOL     MW  916   3.097   1.628   1.810
  230SOL     OW  917   2.860   1.927   0.103
  230SOL    HW1  918   2.860   2.023   0.101
  230SOL    HW2  919   2.879   1.902   0.013
  230SOL     MW  920   2.863   1.936   0.091
  231SOL     OW  921   0.580   0.283   2.713
  231SOL    HW1  922   0.658   0.256   2.762
  231SOL    HW2  923   0.507   0.265   2.772
  231SOL     MW  924   0.581   0.277   2.726
  232SOL     OW  925   1.932   0.719   2.421
  232SOL    HW1  926   2.003   0.709   2.358
  232SOL    HW2  927   1.852   0.701   2.370
  232SOL     MW  928   1.931   0.716   2.407
  233SOL     OW  929   1.673   2.377   0.564
  233SOL    HW1  930   1.670   2.401   0.471
  233SOL    HW2  931   1.740   2.309   0.569
  233SOL     MW  932   1.681   2.371   0.552
  234SOL     OW  933   1.045   1.726   0.817
  234SOL    HW1  934   1.126   1.709   0.769
  234SOL    HW2  935   1.012   1.640   0.839
  234SOL     MW  936   1.051   1.713   0.814
  235SOL     OW  937   2.414   1.497   0.801
  235SOL    HW1  938   2.332   1.518   0.756
  235SOL    HW2  939   2.421   1.563   0.869
  235SOL     MW  940   2.404   1.508   0.804
  236SOL     OW  941   2.311   1.598   0.190
  236SOL    HW1  942   2.368   1.568   0.260
  236SOL    HW2  943   2.363   1.591   0.110
  236SOL     MW  944   2.325   1.593   0.189
  237SOL     OW  945   0.369   1.463   1.001
  237SOL    HW1  946   0.392   1.387   0.946
  237SOL    HW2  947   0.424   1.533   0.968
  237SOL     MW  948   0.379   1.462   0.989
  238SOL     OW  949   1.460   1.652   0.236
  238SOL    HW1  950   1.442   1.639   0.142
  238SOL    HW2  951   1.383   1.698   0.268
  238SOL     MW  952   1.448   1.656   0.228
  239SOL     OW  953   0.509   2.527   3.048
  239SOL    HW1  954   0.422   2.566   3.050
  239SOL    HW2  955   0.530   2.511   3.140
  239SOL     MW  956   0.500   2.530   3.060
  240SOL     OW  957   0.879   2.235   0.576
  240SOL    HW1  958   0.881   2.152   0.624
  240SOL    HW2  959   0.912   2.300   0.638
  240SOL     MW  960   0.883   2.233   0.590
  241SOL     OW  961   0.768   1.614   1.775
  241SOL    HW1  962   0.827   1.540   1.790
  241SOL    HW2  963   0.681   1.573   1.769
  241SOL     MW  964   0.764   1.599   1.776
  242SOL     OW  965   1.438   2.046   1.955
  242SOL    HW1  966   1.367   2.053   1.892
  242SOL    HW2  967   1.506   1.996   1.910
  242SOL     MW  968   1.438   2.041   1.941
  243SOL     OW  969   1.263   0.133   0.950
  243SOL    HW1  970   1.217   0.204   0.996
  243SOL    HW2  971   1.350   0.169   0.931
  243SOL     MW  972   1.268   0.147   0.953
  244SOL     OW  973   2.916   1.589   2.383
  244SOL    HW1  974   2.893   1.660   2.442
  244SOL    HW2  975   2.898   1.622   2.295
  244SOL     MW  976   2.911   1.602   2.379
  245SOL     OW  977   1.524   1.374   1.315
  245SOL    HW1  978   1.546   1.328   1.396
  245SOL    HW2  979   1.524   1.306   1.248
  245SOL     MW  980   1.526   1.360   1.317
  246SOL     OW  981   1.249   1.814   0.301
  246SOL    HW1  982   1.184   1.824   0.232
  246SOL    HW2  983   1.310   1.886   0.288
  246SOL     MW  984   1.248   1.824   0.291
  247SOL     OW  985   1.460   2.220   0.641
  247SOL    HW1  986   1.524   2.289   0.623
  247SOL    HW2  987   1.392   2.262   0.694
  247SOL     MW  988   1.459   2.234   0.645
  248SOL     OW  989   1.521   0.194   0.843
  248SOL    HW1  990   1.602   0.171   0.888
  248SOL    HW2  991   1.516   0.132   0.770
  248SOL     MW  992   1.531   0.184   0.840
  249SOL     OW  993   0.331   1.607   0.095
  249SOL    HW1  994   0.377   1.655   0.026
  249SOL    HW2  995   0.341   1.662   0.173
  249SOL     MW  996   0.338   1.620   0.096
  250SOL     OW  997   1.098   3.147   1.989
  250SOL    HW1  998   1.125   3.111   1.904
  250SOL    HW2  999   1.106   3.073   2.050
  250SOL     MW 1000   1.102   3.133   1.986
  251SOL     OW 1001   3.032   1.676   2.725
  251SOL    HW1 1002   3.009   1.654   2.815
  251SOL    HW2 1003   3.042   1.592   2.680
  251SOL     MW 1004   3.031   1.663   2.730
  252SOL     OW 1005   0.087   2.149   2.062
  252SOL    HW1 1006   0.107   2.057   2.045
  252SOL    HW2 1007   0.041   2.180   1.984
  252SOL     MW 1008   0.084   2.141   2.050
  253SOL     OW 1009   2.547   3.161   1.480
  253SOL    HW1 1010   2.503   3.096   1.425
  253SOL    HW2 1011   2.584   3.110   1.552
  253SOL     MW 1012   2.546   3.146   1.482
  254SOL     OW 1013   2.393   2.732   2.114
  254SOL    HW1 1014   2.397   2.665   2.182
  254SOL    HW2 1015   2.474   2.721   2.065
  254SOL     MW 1016   2.404   2.722   2.116
  255SOL     OW 1017   0.743   0.983   0.597
  255SOL    HW1 1018   0.696   1.067   0.597
  255SOL    HW2 1019   0.808   0.991   0.527
  255SOL     MW 1020   0.745   0.995   0.588
  256SOL     OW 1021   0.478   1.359   2.390
  256SOL    HW1 1022   0.531   1.439   2.385
  256SOL    HW2 1023   0.494   1.315   2.307
  256SOL     MW 1024   0.487   1.363   2.379
  257SOL     OW 1025   0.631   2.282   2.394
  257SOL    HW1 1026   0.649   2.232   2.314
  257SOL    HW2 1027   0.536   2.288   2.397
  257SOL     MW 1028   0.622   2.276   2.384
  258SOL     OW 1029   2.004   0.894   1.282
  258SOL    HW1 1030   2.030   0.977   1.243
  258SOL    HW2 1031   2.084   0.860   1.322
  258SOL     MW 1032   2.017   0.900   1.282
  259SOL     OW 1033   3.015   2.199   1.254
  259SOL    HW1 1034   3.029   2.203   1.349
  259SOL    HW2 1035   3.014   2.291   1.226
  259SOL     MW 1036   3.017   2.212   1.262
  260SOL     OW 1037   0.360   2.250   1.570
  260SOL    HW1 1038   0.398   2.330   1.533
  260SOL    HW2 1039   0.417   2.228   1.643
  260SOL     MW 1040   0.372   2.258   1.574
  261SOL     OW 1041   0.574   2.610   1.860
  261SOL    HW1 1042   0.669   2.621   1.862
  261SOL    HW2 1043   0.559   2.525   1.901
  261SOL     MW 1044   0.584   2.600   1.865
  262SOL     OW 1045   1.524   1.447   0.972
  262SOL    HW1 1046   1.535   1.361   1.013
  262SOL    HW2 1047   1.429   1.459   0.966
  262SOL     MW 1048   1.513   1.437   0.977
  263SOL     OW 1049   0.625   3.173   0.868
  263SOL    HW1 1050   0.687   3.120   0.817
  263SOL    HW2 1051   0.668   3.184   0.953
  263SOL     MW 1052   0.639   3.168   0.872
  264SOL     OW 1053   1.629   2.417   2.645
  264SOL    HW1 1054   1.608   2.497   2.693
  264SOL    HW2 1055   1.648   2.446   2.556
  264SOL     MW 1056   1.628   2.431   2.640
  265SOL     OW 1057   2.899   0.059   1.117
  265SOL    HW1 1058   2.977   0.110   1.139
  265SOL    HW2 1059   2.840   0.072   1.191
  265SOL     MW 1060   2.901   0.067   1.129
  266SOL     OW 1061   2.720   2.277   1.293
  266SOL    HW1 1062   2.733   2.259   1.386
  266SOL    HW2 1063   2.798   2.240   1.251
  266SOL     MW 1064   2.732   2.270   1.300
  267SOL     OW 1065   1.260   2.174   2.752
  267SOL    HW1 1066   1.173   2.166   2.712
  267SOL    HW2 1067   1.319   2.188   2.678
  267SOL     MW 1068   1.256   2.175   2.737
  268SOL     OW 1069   1.147   0.158   1.338
  268SOL    HW1 1070   1.209   0.174   1.409
  268SOL    HW2 1071   1.183   0.083   1.290
  268SOL     MW 1072   1.159   0.150   1.341
  269SOL     OW 1073   2.596   3.182   2.369
  269SOL    HW1 1074   2.562   3.099   2.335
  269SOL    HW2 1075   2.624   3.162   2.458
  269SOL     MW 1076   2.595   3.169   2.376
  270SOL     OW 1077   2.990   1.966   2.368
  270SOL    HW1 1078   3.070   2.018   2.366
  270SOL    HW2 1079   2.949   1.981   2.283
  270SOL     MW 1080   2.995   1.974   2.357
  271SOL     OW 1081   1.820   0.501   0.611
  271SOL    HW1 1082   1.903   0.497   0.659
  271SOL    HW2 1083   1.829   0.437   0.541
  271SOL     MW 1084   1.831   0.493   0.609
  272SOL     OW 1085   2.504   3.062   1.116
  272SOL    HW1 1086   2.584   3.010   1.117
  272SOL    HW2 1087   2.535   3.153   1.108
  272SOL     MW 1088   2.518   3.067   1.115
  273SOL     OW 1089   2.158   2.215   1.690
  273SOL    HW1 1090   2.253   2.203   1.685
  273SOL    HW2 1091   2.142   2.295   1.640
  273SOL     MW 1092   2.168   2.224   1.683
  274SOL     OW 1093   3.047   2.795   0.701
  274SOL    HW1 1094   3.082   2.707   0.683
  274SOL    HW2 1095   2.952   2.783   0.701
  274SOL     MW 1096   3.039   2.782   0.699
  275SOL     OW 1097   0.034   0.301   0.444
  275SOL    HW1 1098   0.118   0.271   0.408
  275SOL    HW2 1099   0.054   0.386   0.483
  275SOL     MW 1100   0.048   0.308   0.445
  276SOL     OW 1101   0.012   2.162   3.044
  276SOL    HW1 1102  -0.018   2.238   2.995
  276SOL    HW2 1103   0.107   2.172   3.047
  276SOL     MW 1104   0.020   2.173   3.038
  277SOL     OW 1105   1.174   1.405   2.257
  277SOL    HW1 1106   1.101   1.393   2.196
  277SOL    HW2 1107   1.221   1.481   2.224
  277SOL     MW 1108   1.171   1.413   2.245
  278SOL     OW 1109   0.293   0.837   1.622
  278SOL    HW1 1110   0.329   0.918   1.586
  278SOL    HW2 1111   0.201   0.837   1.595
  278SOL     MW 1112   0.286   0.847   1.614
  279SOL     OW 1113   0.142   2.036   0.257
  279SOL    HW1 1114   0.069   2.078   0.210
  279SOL    HW2 1115   0.214   2.037   0.194
  279SOL     MW 1116   0.142   2.041   0.243
  280SOL     OW 1117   2.275   2.866   1.609
  280SOL    HW1 1118   2.283   2.907   1.695
  280SOL    HW2 1119   2.329   2.920   1.551
  280SOL     MW 1120   2.283   2.878   1.613
  281SOL     OW 1121   0.477   0.374   0.541
  281SOL    HW1 1122   0.553   0.394   0.486
  281SOL    HW2 1123   0.509   0.311   0.605
  281SOL     MW 1124   0.491   0.369   0.542
  282SOL     OW 1125   1.048   2.336   3.015
  282SOL    HW1 1126   1.028   2.405   3.078
  282SOL    HW2 1127   1.137   2.356   2.985
  282SOL     MW 1128   1.057   2.348   3.019
  283SOL     OW 1129   0.759   2.601   2.721
  283SOL    HW1 1130   0.821   2.533   2.748
  283SOL    HW2 1131   0.690   2.553   2.675
  283SOL     MW 1132   0.758   2.586   2.719
  284SOL     OW 1133   2.796   3.030   0.489
  284SOL    HW1 1134   2.880   3.044   0.532
  284SOL    HW2 1135   2.734   3.013   0.560
  284SOL     MW 1136   2.798   3.030   0.503
  285SOL     OW 1137   2.107   1.000   0.216
  285SOL    HW1 1138   2.080   1.089   0.238
  285SOL    HW2 1139   2.087   0.992   0.123
  285SOL     MW 1140   2.101   1.010   0.207
  286SOL     OW 1141   1.962   0.059   1.360
  286SOL    HW1 1142   2.045   0.023   1.327
  286SOL    HW2 1143   1.898  -0.011   1.347
  286SOL     MW 1144   1.965   0.045   1.354
  287SOL     OW 1145   1.135   2.915   1.087
  287SOL    HW1 1146   1.090   2.944   1.008
  287SOL    HW2 1147   1.199   2.851   1.057
  287SOL     MW 1148   1.137   2.911   1.073
  288SOL     OW 1149   1.778   3.068   1.324
  288SOL    HW1 1150   1.738   3.072   1.237
  288SOL    HW2 1151   1.792   2.974   1.339
  288SOL     MW 1152   1.774   3.056   1.315
  289SOL     OW 1153   2.330   0.941   0.717
  289SOL    HW1 1154   2.261   0.881   0.744
  289SOL    HW2 1155   2.292   0.991   0.645
  289SOL     MW 1156   2.317   0.940   0.712
  290SOL     OW 1157   3.198   0.810   1.598
  290SOL    HW1 1158   3.114   0.779   1.564
  290SOL    HW2 1159   3.180   0.900   1.627
  290SOL     MW 1160   3.185   0.817   1.597
  291SOL     OW 1161   3.012   1.269   0.282
  291SOL    HW1 1162   2.932   1.220   0.302
  291SOL    HW2 1163   2.992   1.360   0.304
  291SOL     MW 1164   2.999   1.274   0.287
  292SOL     OW 1165   0.535   1.932   2.268
  292SOL    HW1 1166   0.548   2.009   2.213
  292SOL    HW2 1167   0.490   1.869   2.212
  292SOL     MW 1168   0.531   1.933   2.254
  293SOL     OW 1169   0.296   0.030   1.138
  293SOL    HW1 1170   0.250   0.044   1.055
  293SOL    HW2 1171   0.372   0.088   1.133
  293SOL     MW 1172   0.300   0.039   1.127
  294SOL     OW 1173   0.022   1.454   2.188
  294SOL    HW1 1174   0.073   1.533   2.173
  294SOL    HW2 1175   0.046   1.427   2.277
  294SOL     MW 1176   0.032   1.460   2.198
  295SOL     OW 1177   2.372   0.024   1.895
  295SOL    HW1 1178   2.338  -0.065   1.887
  295SOL    HW2 1179   2.376   0.057   1.806
  295SOL     MW 1180   2.368   0.017   1.883
  296SOL     OW 1181   0.379   2.058   2.857
  296SOL    HW1 1182   0.474   2.052   2.860
  296SOL    HW2 1183   0.360   2.114   2.782
  296SOL     MW 1184   0.389   2.064   2.848
  297SOL     OW 1185   2.270   1.896   0.917
  297SOL    HW1 1186   2.238   1.894   1.008
  297SOL    HW2 1187   2.203   1.850   0.867
  297SOL     MW 1188   2.257   1.890   0.923
  298SOL     OW 1189   0.620   2.155   2.136
  298SOL    HW1 1190   0.585   2.234   2.096
  298SOL    HW2 1191   0.659   2.106   2.063
  298SOL     MW 1192   0.621   2.159   2.122
  299SOL     OW 1193   3.038   1.737   0.217
  299SOL    HW1 1194   2.984   1.803   0.174
  299SOL    HW2 1195   3.098   1.706   0.148
  299SOL     MW 1196   3.039   1.741   0.203
  300SOL     OW 1197   0.640   2.268   0.438
  300SOL    HW1 1198   0.570   2.277   0.502
  300SOL    HW2 1199   0.718   2.248   0.490
  300SOL     MW 1200   0.641   2.267   0.453
  301SOL     OW 1201   1.390   0.336   2.657
  301SOL    HW1 1202   1.339   0.264   2.694
  301SOL    HW2 1203   1.350   0.415   2.692
  301SOL     MW 1204   1.378   0.337   2.666
  302SOL     OW 1205   0.831   2.731   2.240
  302SOL    HW1 1206   0.814   2.786   2.163
  302SOL    HW2 1207   0.813   2.788   2.314
  302SOL     MW 1208   0.826   2.745   2.239
  303SOL     OW 1209   0.661   1.466   1.456
  303SOL    HW1 1210   0.725   1.407   1.494
  303SOL    HW2 1211   0.634   1.422   1.375
  303SOL     MW 1212   0.666   1.453   1.450
  304SOL     OW 1213   2.560   0.129   1.104
  304SOL    HW1 1214   2.473   0.157   1.132
  304SOL    HW2 1215   2.615   0.141   1.182
  304SOL     MW 1216   2.556   0.134   1.118
  305SOL     OW 1217   1.864   0.421   2.257
  305SOL    HW1 1218   1.823   0.336   2.273
  305SOL    HW2 1219   1.943   0.420   2.310
  305SOL     MW 1220   1.869   0.410   2.266
  306SOL     OW 1221   2.845   0.314   0.117
  306SOL    HW1 1222   2.758   0.274   0.118
  306SOL    HW2 1223   2.828   0.406   0.096
  306SOL     MW 1224   2.831   0.321   0.114
  307SOL     OW 1225   2.134   1.472   1.161
  307SOL    HW1 1226   2.118   1.480   1.255
  307SOL    HW2 1227   2.220   1.432   1.154
  307SOL     MW 1228   2.143   1.468   1.172
  308SOL     OW 1229   2.148   2.025   1.501
  308SOL    HW1 1230   2.139   2.077   1.421
  308SOL    HW2 1231   2.141   2.089   1.572
  308SOL     MW 1232   2.146   2.040   1.500
  309SOL     OW 1233   2.150   2.400   1.120
  309SOL    HW1 1234   2.227   2.388   1.064
  309SOL    HW2 1235   2.178   2.462   1.187
  309SOL     MW 1236   2.163   2.406   1.121
  310SOL     OW 1237   2.086   1.501   1.427
  310SOL    HW1 1238   2.112   1.592   1.412
  310SOL    HW2 1239   2.149   1.468   1.491
  310SOL     MW 1240   2.097   1.509   1.433
  311SOL     OW 1241   1.178   1.707   2.566
  311SOL    HW1 1242   1.266   1.680   2.539
  311SOL    HW2 1243   1.183   1.715   2.661
  311SOL     MW 1244   1.190   1.705   2.575
  312SOL     OW 1245   2.056   2.757   1.478
  312SOL    HW1 1246   2.124   2.804   1.526
  312SOL    HW2 1247   2.103   2.704   1.414
  312SOL     MW 1248   2.071   2.756   1.476
  313SOL     OW 1249   0.713   2.289   1.578
  313SOL    HW1 1250   0.805   2.271   1.601
  313SOL    HW2 1251   0.702   2.253   1.491
  313SOL     MW 1252   0.724   2.282   1.570
  314SOL     OW 1253   3.026   1.218   1.128
  314SOL    HW1 1254   3.025   1.299   1.078
  314SOL    HW2 1255   3.104   1.225   1.183
  314SOL     MW 1256   3.036   1.229   1.129
  315SOL     OW 1257   1.086   2.146   1.429
  315SOL    HW1 1258   1.048   2.179   1.510
  315SOL    HW2 1259   1.150   2.213   1.404
  315SOL     MW 1260   1.089   2.159   1.436
  316SOL     OW 1261   2.872   0.732   2.907
  316SOL    HW1 1262   2.876   0.717   2.813
  316SOL    HW2 1263   2.937   0.801   2.923
  316SOL     MW 1264   2.881   0.739   2.897
  317SOL     OW 1265   0.422   2.287   0.621
  317SOL    HW1 1266   0.444   2.275   0.713
  317SOL    HW2 1267   0.351   2.352   0.622
  317SOL     MW 1268   0.415   2.294   0.633
  318SOL     OW 1269   0.453   1.617   1.539
  318SOL    HW1 1270   0.534   1.570   1.518
  318SOL    HW2 1271   0.481   1.690   1.594
  318SOL     MW 1272   0.467   1.620   1.543
  319SOL     OW 1273   2.642   2.362   0.703
  319SOL    HW1 1274   2.702   2.390   0.634
  319SOL    HW2 1275   2.661   2.268   0.714
  319SOL     MW 1276   2.652   2.353   0.696
  320SOL     OW 1277   1.643   0.785   1.538
  320SOL    HW1 1278   1.644   0.867   1.489
  320SOL    HW2 1279   1.669   0.810   1.627
  320SOL     MW 1280   1.646   0.799   1.544
  321SOL     OW 1281   2.328   1.881   2.903
  321SOL    HW1 1282   2.416   1.853   2.930
  321SOL    HW2 1283   2.337   1.975   2.889
  321SOL     MW 1284   2.341   1.889   2.905
  322SOL     OW 1285   1.530   1.811   1.404
  322SOL    HW1 1286   1.460   1.855   1.451
  322SOL    HW2 1287   1.487   1.739   1.358
  322SOL     MW 1288   1.516   1.807   1.404
  323SOL     OW 1289   1.031   2.321   1.130
  323SOL    HW1 1290   1.114   2.289   1.095
  323SOL    HW2 1291   0.983   2.242   1.156
  323SOL     MW 1292   1.035   2.307   1.129
  324SOL     OW 1293   2.685   1.836   1.751
  324SOL    HW1 1294   2.662   1.885   1.672
  324SOL    HW2 1295   2.711   1.750   1.720
  324SOL     MW 1296   2.685   1.831   1.737
  325SOL     OW 1297   0.389   2.007   2.480
  325SOL    HW1 1298   0.437   1.975   2.403
  325SOL    HW2 1299   0.383   2.101   2.467
  325SOL     MW 1300   0.395   2.015   2.468
  326SOL     OW 1301   1.050   3.020   0.842
  326SOL    HW1 1302   1.078   2.938   0.800
  326SOL    HW2 1303   1.110   3.086   0.808
  326SOL     MW 1304   1.061   3.018   0.832
  327SOL     OW 1305   1.672   2.713   1.058
  327SOL    HW1 1306   1.641   2.674   1.140
  327SOL    HW2 1307   1.704   2.639   1.006
  327SOL     MW 1308   1.672   2.699   1.062
  328SOL     OW 1309   0.944   1.828   1.205
  328SOL    HW1 1310   0.928   1.922   1.196
  328SOL    HW2 1311   0.860   1.787   1.188
  328SOL     MW 1312   0.931   1.834   1.202
  329SOL     OW 1313   0.993   2.761   0.182
  329SOL    HW1 1314   1.040   2.712   0.250
  329SOL    HW2 1315   0.979   2.698   0.112
  329SOL     MW 1316   0.997   2.747   0.182
  330SOL     OW 1317   1.579   1.137   2.710
  330SOL    HW1 1318   1.624   1.067   2.758
  330SOL    HW2 1319   1.494   1.098   2.685
  330SOL     MW 1320   1.574   1.123   2.713
  331SOL     OW 1321   2.583   0.212   0.089
  331SOL    HW1 1322   2.535   0.162   0.155
  331SOL    HW2 1323   2.563   0.168   0.006
  331SOL     MW 1324   2.575   0.200   0.087
  332SOL     OW 1325   2.934   1.653   0.630
  332SOL    HW1 1326   2.870   1.708   0.585
  332SOL    HW2 1327   3.014   1.707   0.632
  332SOL     MW 1328   2.936   1.667   0.624
  333SOL     OW 1329   1.478   0.052   1.198
  333SOL    HW1 1330   1.396   0.003   1.200
  333SOL    HW2 1331   1.455   0.136   1.158
  333SOL     MW 1332   1.464   0.057   1.193
  334SOL     OW 1333   3.025   2.035   1.702
  334SOL    HW1 1334   2.946   2.047   1.753
  334SOL    HW2 1335   3.093   2.083   1.750
  334SOL     MW 1336   3.024   2.042   1.714
  335SOL     OW 1337   2.771   2.884   2.168
  335SOL    HW1 1338   2.686   2.903   2.208
  335SOL    HW2 1339   2.832   2.884   2.242
  335SOL     MW 1340   2.768   2.886   2.183
  336SOL     OW 1341   1.904   0.761   2.077
  336SOL    HW1 1342   1.984   0.738   2.125
  336SOL    HW2 1343   1.833   0.726   2.131
  336SOL     MW 1344   1.905   0.753   2.090
  337SOL     OW 1345   1.107   2.731   2.647
  337SOL    HW1 1346   1.019   2.764   2.665
  337SOL    HW2 1347   1.097   2.682   2.565
  337SOL     MW 1348   1.094   2.729   2.639
  338SOL     OW 1349   3.129   0.319   2.922
  338SOL    HW1 1350   3.104   0.291   2.834
  338SOL    HW2 1351   3.058   0.289   2.978
  338SOL     MW 1352   3.117   0.312   2.918
  339SOL     OW 1353   1.868   0.783   0.610
  339SOL    HW1 1354   1.849   0.690   0.598
  339SOL    HW2 1355   1.785   0.821   0.640
  339SOL     MW 1356   1.855   0.776   0.612
  340SOL     OW 1357   1.573   2.658   2.767
  340SOL    HW1 1358   1.482   2.647   2.794
  340SOL    HW2 1359   1.575   2.742   2.722
  340SOL     MW 1360   1.562   2.667   2.764
  341SOL     OW 1361   3.037   1.826   1.996
  341SOL    HW1 1362   3.130   1.847   1.993
  341SOL    HW2 1363   2.996   1.903   2.035
  341SOL     MW 1364   3.044   1.838   2.001
  342SOL     OW 1365   1.660   3.176   1.901
  342SOL    HW1 1366   1.610   3.213   1.828
  342SOL    HW2 1367   1.721   3.114   1.860
  342SOL     MW 1368   1.662   3.173   1.887
  343SOL     OW 1369   0.412   2.686   2.218
  343SOL    HW1 1370   0.408   2.727   2.132
  343SOL    HW2 1371   0.320   2.683   2.247
  343SOL     MW 1372   0.399   2.691   2.211
  344SOL     OW 1373   1.113   2.001   2.019
  344SOL    HW1 1374   1.057   2.008   1.942
  344SOL    HW2 1375   1.114   2.089   2.057
  344SOL     MW 1376   1.106   2.013   2.014
  345SOL     OW 1377   2.610   2.009   1.558
  345SOL    HW1 1378   2.677   2.078   1.558
  345SOL    HW2 1379   2.531   2.052   1.590
  345SOL     MW 1380   2.609   2.023   1.562
  346SOL     OW 1381   2.303   0.662   1.970
  346SOL    HW1 1382   2.244   0.588   1.989
  346SOL    HW2 1383   2.297   0.673   1.875
  346SOL     MW 1384   2.295   0.654   1.961
  347SOL     OW 1385   0.705   1.889   3.118
  347SOL    HW1 1386   0.777   1.839   3.079
  347SOL    HW2 1387   0.628   1.833   3.108
  347SOL     MW 1388   0.704   1.876   3.112
  348SOL     OW 1389   0.352   2.580   2.697
  348SOL    HW1 1390   0.308   2.524   2.761
  348SOL    HW2 1391   0.422   2.526   2.662
  348SOL     MW 1392   0.355   2.566   2.701
  349SOL     OW 1393   2.532   1.589   2.288
  349SOL    HW1 1394   2.595   1.524   2.256
  349SOL    HW2 1395   2.454   1.538   2.311
  349SOL     MW 1396   2.530   1.574   2.287
  350SOL     OW 1397   2.437   0.090   0.296
  350SOL    HW1 1398   2.513   0.072   0.351
  350SOL    HW2 1399   2.373   0.128   0.355
  350SOL     MW 1400   2.439   0.092   0.310
  351SOL     OW 1401   0.492   1.239   2.131
  351SOL    HW1 1402   0.401   1.266   2.132
  351SOL    HW2 1403   0.489   1.144   2.119
  351SOL     MW 1404   0.480   1.230   2.130
  352SOL     OW 1405   2.342   0.986   2.234
  352SOL    HW1 1406   2.252   0.986   2.266
  352SOL    HW2 1407   2.363   1.079   2.223
  352SOL     MW 1408   2.333   0.998   2.237
  353SOL     OW 1409   0.356   2.071   0.073
  353SOL    HW1 1410   0.392   1.989   0.041
  353SOL    HW2 1411   0.432   2.120   0.104
  353SOL     MW 1412   0.370   2.067   0.073
  354SOL     OW 1413   2.224   0.695   0.480
  354SOL    HW1 1414   2.156   0.634   0.451
  354SOL    HW2 1415   2.283   0.642   0.533
  354SOL     MW 1416   2.223   0.681   0.483
  355SOL     OW 1417   3.131   2.964   1.378
  355SOL    HW1 1418   3.208   3.007   1.341
  355SOL    HW2 1419   3.157   2.872   1.387
  355SOL     MW 1420   3.144   2.957   1.374
  356SOL     OW 1421   2.220   0.443   2.942
  356SOL    HW1 1422   2.209   0.441   2.847
  356SOL    HW2 1423   2.314   0.459   2.956
  356SOL     MW 1424   2.231   0.445   2.932
  357SOL     OW 1425   2.641   0.532   0.311
  357SOL    HW1 1426   2.678   0.456   0.356
  357SOL    HW2 1427   2.547   0.515   0.308
  357SOL     MW 1428   2.634   0.520   0.316
  358SOL     OW 1429   1.498   2.815   0.397
  358SOL    HW1 1430   1.584   2.834   0.435
  358SOL    HW2 1431   1.514   2.807   0.303
  358SOL     MW 1432   1.511   2.817   0.390
  359SOL     OW 1433   0.756   2.882   2.027
  359SOL    HW1 1434   0.792   2.948   1.968
  359SOL    HW2 1435   0.679   2.924   2.067
  359SOL     MW 1436   0.751   2.896   2.025
  360SOL     OW 1437   1.390   0.266   3.025
  360SOL    HW1 1438   1.474   0.262   2.979
  360SOL    HW2 1439   1.372   0.360   3.031
  360SOL     MW 1440   1.399   0.278   3.020
  361SOL     OW 1441   0.685   1.025   0.210
  361SOL    HW1 1442   0.613   1.036   0.273
  361SOL    HW2 1443   0.657   1.073   0.132
  361SOL     MW 1444   0.672   1.033   0.208
  362SOL     OW 1445   0.800   3.107   0.475
  362SOL    HW1 1446   0.821   3.022   0.437
  362SOL    HW2 1447   0.885   3.149   0.488
  362SOL     MW 1448   0.813   3.102   0.472
  363SOL     OW 1449   1.982   0.616   2.663
  363SOL    HW1 1450   1.907   0.558   2.678
  363SOL    HW2 1451   1.973   0.644   2.572
  363SOL     MW 1452   1.971   0.612   2.654
  364SOL     OW 1453   1.526   0.634   1.157
  364SOL    HW1 1454   1.551   0.604   1.244
  364SOL    HW2 1455   1.593   0.597   1.099
  364SOL     MW 1456   1.537   0.625   1.161
  365SOL     OW 1457   1.503   1.755   1.048
  365SOL    HW1 1458   1.480   1.792   0.962
  365SOL    HW2 1459   1.556   1.822   1.090
  365SOL     MW 1460   1.507   1.768   1.042
  366SOL     OW 1461   1.276   1.966   2.937
  366SOL    HW1 1462   1.303   2.025   2.866
  366SOL    HW2 1463   1.190   1.998   2.964
  366SOL     MW 1464   1.269   1.978   2.931
  367SOL     OW 1465   2.105   2.925   2.056
  367SOL    HW1 1466   2.056   3.006   2.071
  367SOL    HW2 1467   2.048   2.872   2.001
  367SOL     MW 1468   2.091   2.929   2.051
  368SOL     OW 1469   2.372   0.459   0.312
  368SOL    HW1 1470   2.366   0.427   0.222
  368SOL    HW2 1471   2.282   0.456   0.345
  368SOL     MW 1472   2.360   0.455   0.304
  369SOL     OW 1473   0.456   2.490   1.475
  369SOL    HW1 1474   0.433   2.564   1.532
  369SOL    HW2 1475   0.547   2.506   1.450
  369SOL     MW 1476   0.465   2.502   1.479
  370SOL     OW 1477   0.807   0.179   2.821
  370SOL    HW1 1478   0.883   0.223   2.783
  370SOL    HW2 1479   0.812   0.089   2.788
  370SOL     MW 1480   0.817   0.173   2.812
  371SOL     OW 1481   2.075   1.823   0.718
  371SOL    HW1 1482   2.117   1.740   0.696
  371SOL    HW2 1483   2.118   1.887   0.661
  371SOL     MW 1484   2.086   1.820   0.708
  372SOL     OW 1485   2.601   1.205   1.098
  372SOL    HW1 1486   2.527   1.259   1.124
  372SOL    HW2 1487   2.624   1.236   1.011
  372SOL     MW 1488   2.594   1.216   1.090
  373SOL     OW 1489   2.877   1.261   2.637
  373SOL    HW1 1490   2.885   1.166   2.639
  373SOL    HW2 1491   2.801   1.278   2.580
  373SOL     MW 1492   2.868   1.251   2.630
  374SOL     OW 1493   1.373   1.890   3.184
  374SOL    HW1 1494   1.353   1.926   3.097
  374SOL    HW2 1495   1.395   1.798   3.167
  374SOL     MW 1496   1.374   1.883   3.171
  375SOL     OW 1497   1.303   2.657   2.829
  375SOL    HW1 1498   1.292   2.567   2.859
  375SOL    HW2 1499   1.232   2.671   2.767
  375SOL     MW 1500   1.293   2.647   2.825
  376SOL     OW 1501   1.274   0.540   1.110
  376SOL    HW1 1502   1.216   0.581   1.174
  376SOL    HW2 1503   1.358   0.584   1.123
  376SOL     MW 1504   1.278   0.551   1.120
  377SOL     OW 1505   0.092   1.076   1.879
  377SOL    HW1 1506   0.022   1.069   1.814
  377SOL    HW2 1507   0.135   1.159   1.859
  377SOL     MW 1508   0.088   1.085   1.868
  378SOL     OW 1509   2.312   2.448   2.853
  378SOL    HW1 1510   2.276   2.497   2.778
  378SOL    HW2 1511   2.267   2.485   2.929
  378SOL     MW 1512   2.302   2.459   2.853
  379SOL     OW 1513   2.272   2.185   2.126
  379SOL    HW1 1514   2.275   2.143   2.039
  379SOL    HW2 1515   2.247   2.114   2.185
  379SOL     MW 1516   2.269   2.170   2.122
  380SOL     OW 1517   2.857   1.771   1.351
  380SOL    HW1 1518   2.915   1.774   1.427
  380SOL    HW2 1519   2.795   1.701   1.371
  380SOL     MW 1520   2.856   1.763   1.363
  381SOL     OW 1521   2.775   2.225   1.556
  381SOL    HW1 1522   2.870   2.232   1.550
  381SOL    HW2 1523   2.748   2.306   1.601
  381SOL     MW 1524   2.784   2.236   1.561
  382SOL     OW 1525   0.875   0.622   0.451
  382SOL    HW1 1526   0.853   0.688   0.385
  382SOL    HW2 1527   0.872   0.670   0.534
  382SOL     MW 1528   0.871   0.637   0.453
  383SOL     OW 1529   0.074   2.398   0.179
  383SOL    HW1 1530   0.024   2.320   0.160
  383SOL    HW2 1531   0.057   2.457   0.105
  383SOL     MW 1532   0.066   2.396   0.167
  384SOL     OW 1533   0.968   2.115   0.185
  384SOL    HW1 1534   1.021   2.052   0.137
  384SOL    HW2 1535   0.914   2.062   0.243
  384SOL     MW 1536   0.968   2.100   0.186
  385SOL     OW 1537   2.668   3.087   2.621
  385SOL    HW1 1538   2.749   3.117   2.662
  385SOL    HW2 1539   2.671   2.991   2.630
  385SOL     MW 1540   2.679   3.078   2.628
  386SOL     OW 1541   1.759   0.870   2.582
  386SOL    HW1 1542   1.727   0.922   2.508
  386SOL    HW2 1543   1.836   0.824   2.547
  386SOL     MW 1544   1.765   0.871   2.568
  387SOL     OW 1545   1.925   1.850   3.020
  387SOL    HW1 1546   2.012   1.853   3.061
  387SOL    HW2 1547   1.900   1.758   3.024
  387SOL     MW 1548   1.933   1.839   3.026
  388SOL     OW 1549   2.701   2.879   1.120
  388SOL    HW1 1550   2.785   2.850   1.157
  388SOL    HW2 1551   2.657   2.798   1.095
  388SOL     MW 1552   2.706   2.865   1.122
  389SOL     OW 1553   1.841   2.650   2.851
  389SOL    HW1 1554   1.747   2.652   2.836
  389SOL    HW2 1555   1.874   2.729   2.808
  389SOL     MW 1556   1.833   2.660   2.843
  390SOL     OW 1557   1.279   1.399   3.118
  390SOL    HW1 1558   1.343   1.336   3.150
  390SOL    HW2 1559   1.284   1.392   3.023
  390SOL     MW 1560   1.288   1.390   3.110
  391SOL     OW 1561   0.841   0.348   1.195
  391SOL    HW1 1562   0.927   0.336   1.155
  391SOL    HW2 1563   0.786   0.381   1.123
  391SOL     MW 1564   0.845   0.351   1.181
  392SOL     OW 1565   0.015   1.404   3.094
  392SOL    HW1 1566   0.032   1.458   3.171
  392SOL    HW2 1567   0.086   1.340   3.094
  392SOL     MW 1568   0.026   1.402   3.104
  393SOL     OW 1569   1.101   0.911   2.620
  393SOL    HW1 1570   1.034   0.928   2.687
  393SOL    HW2 1571   1.060   0.942   2.539
  393SOL     MW 1572   1.087   0.918   2.618
  394SOL     OW 1573   2.161   0.283   0.968
  394SOL    HW1 1574   2.217   0.256   1.041
  394SOL    HW2 1575   2.222   0.295   0.894
  394SOL     MW 1576   2.176   0.281   0.968
  395SOL     OW 1577   2.006   1.438   1.754
  395SOL    HW1 1578   1.915   1.451   1.729
  395SOL    HW2 1579   2.027   1.349   1.724
  395SOL     MW 1580   1.997   1.428   1.747
  396SOL     OW 1581   2.608   1.815   2.438
  396SOL    HW1 1582   2.691   1.806   2.485
  396SOL    HW2 1583   2.593   1.729   2.398
  396SOL     MW 1584   2.616   1.803   2.439
  397SOL     OW 1585   1.039   0.029   0.525
  397SOL    HW1 1586   1.024   0.123   0.537
  397SOL    HW2 1587   1.108   0.008   0.587
  397SOL     MW 1588   1.046   0.038   0.534
  398SOL     OW 1589   1.985   1.099   2.530
  398SOL    HW1 1590   2.065   1.150   2.536
  398SOL    HW2 1591   2.003   1.020   2.581
  398SOL     MW 1592   1.997   1.095   2.537
  399SOL     OW 1593   0.728   2.485   0.306
  399SOL    HW1 1594   0.660   2.502   0.242
  399SOL    HW2 1595   0.696   2.411   0.358
  399SOL     MW 1596   0.715   2.478   0.305
  400SOL     OW 1597   0.824   0.464   1.647
  400SOL    HW1 1598   0.841   0.495   1.558
  400SOL    HW2 1599   0.867   0.378   1.651
  400SOL     MW 1600   0.831   0.457   1.636
  401SOL     OW 1601   1.294   1.326   2.653
  401SOL    HW1 1602   1.367   1.352   2.596
  401SOL    HW2 1603   1.217   1.366   2.612
  401SOL     MW 1604   1.294   1.335   2.640
  402SOL     OW 1605   0.490   1.814   1.722
  402SOL    HW1 1606   0.396   1.832   1.727
  402SOL    HW2 1607   0.508   1.758   1.797
  402SOL     MW 1608   0.480   1.809   1.732
  403SOL     OW 1609   0.684   0.810   1.999
  403SOL    HW1 1610   0.616   0.878   2.004
  403SOL    HW2 1611   0.682   0.781   1.907
  403SOL     MW 1612   0.675   0.815   1.988
  404SOL     OW 1613   2.883   2.029   2.116
  404SOL    HW1 1614   2.797   2.016   2.156
  404SOL    HW2 1615   2.894   2.124   2.110
  404SOL     MW 1616   2.874   2.039   2.121
  405SOL     OW 1617   1.917   2.817   1.083
  405SOL    HW1 1618   1.973   2.744   1.056
  405SOL    HW2 1619   1.828   2.784   1.069
  405SOL     MW 1620   1.912   2.803   1.077
  406SOL     OW 1621   0.620   0.813   2.452
  406SOL    HW1 1622   0.580   0.729   2.429
  406SOL    HW2 1623   0.606   0.822   2.546
  406SOL     MW 1624   0.613   0.804   2.461
  407SOL     OW 1625   0.055   2.531   0.427
  407SOL    HW1 1626   0.034   2.479   0.350
  407SOL    HW2 1627  -0.022   2.525   0.482
  407SOL     MW 1628   0.043   2.524   0.424
  408SOL     OW 1629   1.379   1.219   2.285
  408SOL    HW1 1630   1.314   1.284   2.258
  408SOL    HW2 1631   1.421   1.192   2.203
  408SOL     MW 1632   1.376   1.224   2.271
  409SOL     OW 1633   0.276   1.229   0.289
  409SOL    HW1 1634   0.191   1.201   0.256
  409SOL    HW2 1635   0.256   1.294   0.357
  409SOL     MW 1636   0.263   1.234   0.294
  410SOL     OW 1637   2.711   0.142   1.335
  410SOL    HW1 1638   2.685   0.228   1.368
  410SOL    HW2 1639   2.663   0.080   1.390
  410SOL     MW 1640   2.701   0.145   1.346
  411SOL     OW 1641   3.058   0.489   2.546
  411SOL    HW1 1642   3.059   0.465   2.453
  411SOL    HW2 1643   3.148   0.475   2.575
  411SOL     MW 1644   3.069   0.484   2.538
  412SOL     OW 1645   0.801   1.536   0.545
  412SOL    HW1 1646   0.786   1.485   0.624
  412SOL    HW2 1647   0.876   1.492   0.503
  412SOL     MW 1648   0.809   1.524   0.549
  413SOL     OW 1649   1.306   0.722  -0.025
  413SOL    HW1 1650   1.326   0.670   0.052
  413SOL    HW2 1651   1.317   0.813   0.003
  413SOL     MW 1652   1.310   0.727  -0.012
  414SOL     OW 1653   2.640   1.984   2.224
  414SOL    HW1 1654   2.607   1.915   2.166
  414SOL    HW2 1655   2.638   1.945   2.311
  414SOL     MW 1656   2.636   1.970   2.228
  415SOL     OW 1657   1.934   0.795   3.012
  415SOL    HW1 1658   1.958   0.865   3.073
  415SOL    HW2 1659   1.860   0.831   2.962
  415SOL     MW 1660   1.927   0.809   3.014
  416SOL     OW 1661   1.101   0.474   2.264
  416SOL    HW1 1662   1.182   0.474   2.316
  416SOL    HW2 1663   1.076   0.566   2.257
  416SOL     MW 1664   1.108   0.485   2.270
  417SOL     OW 1665   2.630   0.391   1.426
  417SOL    HW1 1666   2.672   0.440   1.497
  417SOL    HW2 1667   2.593   0.459   1.370
  417SOL     MW 1668   2.631   0.406   1.428
  418SOL     OW 1669   0.705   0.122   1.282
  418SOL    HW1 1670   0.740   0.058   1.219
  418SOL    HW2 1671   0.759   0.200   1.268
  418SOL     MW 1672   0.716   0.124   1.272
  419SOL     OW 1673   1.881   1.605   0.367
  419SOL    HW1 1674   1.849   1.577   0.453
  419SOL    HW2 1675   1.969   1.638   0.384
  419SOL     MW 1676   1.888   1.605   0.380
  420SOL     OW 1677   2.059   1.486   2.274
  420SOL    HW1 1678   1.970   1.461   2.300
  420SOL    HW2 1679   2.075   1.435   2.194
  420SOL     MW 1680   2.049   1.476   2.267
  421SOL     OW 1681   2.842   1.681   2.129
  421SOL    HW1 1682   2.912   1.730   2.085
  421SOL    HW2 1683   2.764   1.735   2.116
  421SOL     MW 1684   2.841   1.694   2.122
  422SOL     OW 1685   0.345   0.599   0.624
  422SOL    HW1 1686   0.252   0.583   0.606
  422SOL    HW2 1687   0.389   0.520   0.595
  422SOL     MW 1688   0.339   0.587   0.618
  423SOL     OW 1689   2.603   0.956   0.433
  423SOL    HW1 1690   2.585   0.999   0.517
  423SOL    HW2 1691   2.516   0.937   0.398
  423SOL     MW 1692   2.589   0.959   0.439
  424SOL     OW 1693   0.344   0.254   2.851
  424SOL    HW1 1694   0.291   0.207   2.786
  424SOL    HW2 1695   0.293   0.248   2.932
  424SOL     MW 1696   0.330   0.247   2.853
  425SOL     OW 1697   2.104   0.781   0.778
  425SOL    HW1 1698   2.076   0.772   0.869
  425SOL    HW2 1699   2.024   0.796   0.729
  425SOL     MW 1700   2.090   0.782   0.783
  426SOL     OW 1701   0.394   2.740   0.150
  426SOL    HW1 1702   0.358   2.707   0.232
  426SOL    HW2 1703   0.451   2.812   0.177
  426SOL     MW 1704   0.397   2.745   0.164
  427SOL     OW 1705   1.727   2.155   2.653
  427SOL    HW1 1706   1.802   2.124   2.704
  427SOL    HW2 1707   1.712   2.245   2.684
  427SOL     MW 1708   1.734   2.163   2.663
  428SOL     OW 1709   0.268   2.232   2.677
  428SOL    HW1 1710   0.230   2.294   2.740
  428SOL    HW2 1711   0.196   2.172   2.656
  428SOL     MW 1712   0.254   2.233   2.682
  429SOL     OW 1713   0.400   0.796   0.436
  429SOL    HW1 1714   0.319   0.820   0.390
  429SOL    HW2 1715   0.372   0.737   0.505
  429SOL     MW 1716   0.386   0.792   0.439
  430SOL     OW 1717   2.124   1.570   3.151
  430SOL    HW1 1718   2.147   1.662   3.142
  430SOL    HW2 1719   2.157   1.544   3.237
  430SOL     MW 1720   2.131   1.578   3.161
  431SOL     OW 1721   1.778   0.815   0.934
  431SOL    HW1 1722   1.750   0.846   1.020
  431SOL    HW2 1723   1.774   0.720   0.941
  431SOL     MW 1724   1.774   0.807   0.946
  432SOL     OW 1725   1.759   0.121   0.961
  432SOL    HW1 1726   1.790   0.167   1.040
  432SOL    HW2 1727   1.737   0.033   0.992
  432SOL     MW 1728   1.760   0.116   0.975
  433SOL     OW 1729   0.072   1.869   1.488
  433SOL    HW1 1730   0.068   1.857   1.393
  433SOL    HW2 1731  -0.013   1.839   1.520
  433SOL     MW 1732   0.061   1.864   1.480
  434SOL     OW 1733   0.477   1.056   0.386
  434SOL    HW1 1734   0.398   1.096   0.351
  434SOL    HW2 1735   0.451   0.967   0.409
  434SOL     MW 1736   0.464   1.049   0.385
  435SOL     OW 1737   2.232   0.931   1.990
  435SOL    HW1 1738   2.247   0.837   1.980
  435SOL    HW2 1739   2.274   0.953   2.073
  435SOL     MW 1740   2.239   0.921   2.000
  436SOL     OW 1741   0.515   1.523   1.791
  436SOL    HW1 1742   0.470   1.532   1.707
  436SOL    HW2 1743   0.513   1.429   1.809
  436SOL     MW 1744   0.509   1.512   1.782
  437SOL     OW 1745   2.911   2.497   1.449
  437SOL    HW1 1746   2.974   2.433   1.482
  437SOL    HW2 1747   2.938   2.580   1.488
  437SOL     MW 1748   2.922   2.499   1.458
  438SOL     OW 1749   1.852   1.350   1.433
  438SOL    HW1 1750   1.881   1.263   1.460
  438SOL    HW2 1751   1.932   1.403   1.433
  438SOL     MW 1752   1.866   1.346   1.436
  439SOL     OW 1753   2.196   0.169   2.686
  439SOL    HW1 1754   2.202   0.149   2.592
  439SOL    HW2 1755   2.200   0.264   2.690
  439SOL     MW 1756   2.197   0.178   2.674
  440SOL     OW 1757   1.542   0.165   1.711
  440SOL    HW1 1758   1.621   0.161   1.658
  440SOL    HW2 1759   1.540   0.255   1.745
  440SOL     MW 1760   1.552   0.176   1.709
  441SOL     OW 1761   3.022   0.143   0.568
  441SOL    HW1 1762   3.048   0.052   0.583
  441SOL    HW2 1763   3.102   0.186   0.539
  441SOL     MW 1764   3.036   0.137   0.566
  442SOL     OW 1765   1.844   0.627   1.265
  442SOL    HW1 1766   1.769   0.583   1.305
  442SOL    HW2 1767   1.875   0.565   1.199
  442SOL     MW 1768   1.838   0.613   1.261
  443SOL     OW 1769   2.321   1.833   1.603
  443SOL    HW1 1770   2.342   1.843   1.696
  443SOL    HW2 1771   2.272   1.912   1.581
  443SOL     MW 1772   2.317   1.844   1.612
  444SOL     OW 1773   1.255   1.475   0.528
  444SOL    HW1 1774   1.326   1.457   0.466
  444SOL    HW2 1775   1.258   1.401   0.589
  444SOL     MW 1776   1.265   1.463   0.528
  445SOL     OW 1777   0.475   2.824   0.940
  445SOL    HW1 1778   0.536   2.801   0.870
  445SOL    HW2 1779   0.471   2.745   0.994
  445SOL     MW 1780   0.482   2.811   0.938
  446SOL     OW 1781   1.613   2.065   2.983
  446SOL    HW1 1782   1.577   2.013   2.910
  446SOL    HW2 1783   1.631   2.000   3.051
  446SOL     MW 1784   1.611   2.050   2.982
  447SOL     OW 1785   2.192   0.719   2.950
  447SOL    HW1 1786   2.101   0.744   2.969
  447SOL    HW2 1787   2.192   0.624   2.953
  447SOL     MW 1788   2.180   0.710   2.953
  448SOL     OW 1789   0.219   1.284   2.117
  448SOL    HW1 1790   0.156   1.353   2.135
  448SOL    HW2 1791   0.178   1.204   2.151
  448SOL     MW 1792   0.206   1.282   2.124
  449SOL     OW 1793   1.111   0.545   0.567
  449SOL    HW1 1794   1.091   0.581   0.654
  449SOL    HW2 1795   1.041   0.576   0.511
  449SOL     MW 1796   1.100   0.553   0.571
  450SOL     OW 1797   1.600   0.451   0.773
  450SOL    HW1 1798   1.574   0.359   0.785
  450SOL    HW2 1799   1.672   0.447   0.711
  450SOL     MW 1800   1.606   0.438   0.767
  451SOL     OW 1801   1.951   2.688   3.102
  451SOL    HW1 1802   1.972   2.781   3.109
  451SOL    HW2 1803   1.910   2.679   3.016
  451SOL     MW 1804   1.948   2.699   3.092
  452SOL     OW 1805   2.370   0.371   0.045
  452SOL    HW1 1806   2.449   0.322   0.067
  452SOL    HW2 1807   2.315   0.308  -0.002
  452SOL     MW 1808   2.373   0.357   0.042
  453SOL     OW 1809   1.675   2.472   2.382
  453SOL    HW1 1810   1.598   2.492   2.328
  453SOL    HW2 1811   1.733   2.547   2.371
  453SOL     MW 1812   1.672   2.484   2.374
  454SOL     OW 1813   0.357   3.204   2.481
  454SOL    HW1 1814   0.331   3.118   2.514
  454SOL    HW2 1815   0.446   3.217   2.514
  454SOL     MW 1816   0.365   3.195   2.489
  455SOL     OW 1817   2.607   1.055   2.561
  455SOL    HW1 1818   2.616   1.141   2.521
  455SOL    HW2 1819   2.526   1.060   2.612
  455SOL     MW 1820   2.598   1.066   2.562
  456SOL     OW 1821   2.332   0.550   2.333
  456SOL    HW1 1822   2.367   0.573   2.419
  456SOL    HW2 1823   2.407   0.555   2.274
  456SOL     MW 1824   2.346   0.554   2.336
  457SOL     OW 1825   0.004   0.838   3.008
  457SOL    HW1 1826   0.098   0.836   3.026
  457SOL    HW2 1827  -0.015   0.752   2.971
  457SOL     MW 1828   0.013   0.826   3.006
  458SOL     OW 1829   0.169   1.727   0.779
  458SOL    HW1 1830   0.143   1.645   0.820
  458SOL    HW2 1831   0.090   1.759   0.736
  458SOL     MW 1832   0.156   1.721   0.779
  459SOL     OW 1833   2.724   2.573   0.299
  459SOL    HW1 1834   2.632   2.556   0.279
  459SOL    HW2 1835   2.733   2.668   0.292
  459SOL     MW 1836   2.713   2.583   0.296
  460SOL     OW 1837   1.780   1.381   0.238
  460SOL    HW1 1838   1.757   1.316   0.304
  460SOL    HW2 1839   1.824   1.450   0.287
  460SOL     MW 1840   1.783   1.381   0.253
  461SOL     OW 1841   1.445   0.907   2.417
  461SOL    HW1 1842   1.385   0.879   2.347
  461SOL    HW2 1843   1.395   0.973   2.465
  461SOL     MW 1844   1.431   0.912   2.414
  462SOL     OW 1845   0.546   1.962   0.311
  462SOL    HW1 1846   0.484   2.017   0.359
  462SOL    HW2 1847   0.572   2.015   0.236
  462SOL     MW 1848   0.541   1.976   0.308
  463SOL     OW 1849   2.373   0.301   1.448
  463SOL    HW1 1850   2.365   0.236   1.519
  463SOL    HW2 1851   2.465   0.326   1.449
  463SOL     MW 1852   2.384   0.296   1.457
  464SOL     OW 1853   2.100   2.176   1.270
  464SOL    HW1 1854   2.102   2.249   1.208
  464SOL    HW2 1855   2.131   2.101   1.219
  464SOL     MW 1856   2.104   2.176   1.255
  465SOL     OW 1857   0.428   3.033   0.738
  465SOL    HW1 1858   0.418   2.954   0.791
  465SOL    HW2 1859   0.486   3.089   0.790
  465SOL     MW 1860   0.434   3.030   0.751
  466SOL     OW 1861   3.001   2.358   2.656
  466SOL    HW1 1862   3.056   2.363   2.733
  466SOL    HW2 1863   3.061   2.366   2.582
  466SOL     MW 1864   3.015   2.359   2.656
  467SOL     OW 1865   2.319   1.648   2.758
  467SOL    HW1 1866   2.320   1.734   2.799
  467SOL    HW2 1867   2.279   1.663   2.672
  467SOL     MW 1868   2.314   1.661   2.752
  468SOL     OW 1869   0.278   2.212   3.053
  468SOL    HW1 1870   0.319   2.158   2.986
  468SOL    HW2 1871   0.306   2.173   3.136
  468SOL     MW 1872   0.287   2.200   3.055
  469SOL     OW 1873   1.894   1.719   1.253
  469SOL    HW1 1874   1.819   1.661   1.237
  469SOL    HW2 1875   1.905   1.768   1.172
  469SOL     MW 1876   1.886   1.717   1.240
  470SOL     OW 1877   2.707   1.399   2.191
  470SOL    HW1 1878   2.799   1.379   2.210
  470SOL    HW2 1879   2.708   1.433   2.101
  470SOL     MW 1880   2.719   1.400   2.182
  471SOL     OW 1881   2.057   0.885   2.690
  471SOL    HW1 1882   2.151   0.869   2.691
  471SOL    HW2 1883   2.018   0.798   2.702
  471SOL     MW 1884   2.064   0.872   2.692
  472SOL     OW 1885   0.731   3.140   0.203
  472SOL    HW1 1886   0.668   3.068   0.204
  472SOL    HW2 1887   0.755   3.153   0.295
  472SOL     MW 1888   0.726   3.132   0.215
  473SOL     OW 1889   0.850   2.719   0.953
  473SOL    HW1 1890   0.853   2.624   0.969
  473SOL    HW2 1891   0.793   2.728   0.876
  473SOL     MW 1892   0.843   2.708   0.945
  474SOL     OW 1893   0.250   1.842   2.956
  474SOL    HW1 1894   0.186   1.817   2.889
  474SOL    HW2 1895   0.297   1.916   2.918
  474SOL     MW 1896   0.248   1.848   2.943
  475SOL     OW 1897   1.276   2.734   2.249
  475SOL    HW1 1898   1.311   2.805   2.302
  475SOL    HW2 1899   1.199   2.703   2.297
  475SOL     MW 1900   1.271   2.739   2.262
  476SOL     OW 1901   0.880   2.754   3.055
  476SOL    HW1 1902   0.913   2.843   3.041
  476SOL    HW2 1903   0.793   2.754   3.015
  476SOL     MW 1904   0.873   2.766   3.048
  477SOL     OW 1905   2.458   1.546   1.881
  477SOL    HW1 1906   2.471   1.577   1.792
  477SOL    HW2 1907   2.367   1.567   1.901
  477SOL     MW 1908   2.448   1.553   1.872
  478SOL     OW 1909   1.138   1.615   1.802
  478SOL    HW1 1910   1.222   1.634   1.761
  478SOL    HW2 1911   1.078   1.678   1.763
  478SOL     MW 1912   1.141   1.626   1.792
  479SOL     OW 1913   2.709   0.784   1.059
  479SOL    HW1 1914   2.802   0.771   1.039
  479SOL    HW2 1915   2.670   0.808   0.975
  479SOL     MW 1916   2.716   0.786   1.046
  480SOL     OW 1917   2.616   0.649   0.666
  480SOL    HW1 1918   2.607   0.722   0.727
  480SOL    HW2 1919   2.671   0.683   0.595
  480SOL     MW 1920   2.622   0.663   0.665
  481SOL     OW 1921   1.652   0.226   2.015
  481SOL    HW1 1922   1.661   0.140   1.975
  481SOL    HW2 1923   1.672   0.212   2.108
  481SOL     MW 1924   1.656   0.213   2.022
  482SOL     OW 1925   2.699   1.562   2.859
  482SOL    HW1 1926   2.739   1.478   2.881
  482SOL    HW2 1927   2.645   1.543   2.782
  482SOL     MW 1928   2.698   1.549   2.852
  483SOL     OW 1929   2.662   2.989   0.735
  483SOL    HW1 1930   2.718   3.027   0.802
  483SOL    HW2 1931   2.574   2.994   0.773
  483SOL     MW 1932   2.658   2.995   0.748
  484SOL     OW 1933   1.693   0.851   1.187
  484SOL    HW1 1934   1.765   0.798   1.220
  484SOL    HW2 1935   1.621   0.790   1.175
  484SOL     MW 1936   1.693   0.836   1.190
  485SOL     OW 1937   0.214   1.215   3.062
  485SOL    HW1 1938   0.244   1.151   3.127
  485SOL    HW2 1939   0.177   1.163   2.991
  485SOL     MW 1940   0.213   1.200   3.062
  486SOL     OW 1941   0.318   2.944   1.147
  486SOL    HW1 1942   0.314   3.039   1.148
  486SOL    HW2 1943   0.358   2.923   1.063
  486SOL     MW 1944   0.323   2.953   1.136
  487SOL     OW 1945   0.994   0.024   1.523
  487SOL    HW1 1946   1.041   0.061   1.448
  487SOL    HW2 1947   0.977   0.098   1.581
  487SOL     MW 1948   0.998   0.038   1.521
  488SOL     OW 1949   1.153   3.095   2.817
  488SOL    HW1 1950   1.086   3.076   2.882
  488SOL    HW2 1951   1.226   3.038   2.838
  488SOL     MW 1952   1.154   3.085   2.828
  489SOL     OW 1953   0.798   3.016   0.731
  489SOL    HW1 1954   0.886   3.020   0.768
  489SOL    HW2 1955   0.806   3.052   0.643
  489SOL     MW 1956   0.810   3.021   0.725
  490SOL     OW 1957   0.476   2.618   1.121
  490SOL    HW1 1958   0.381   2.610   1.132
  490SOL    HW2 1959   0.504   2.672   1.195
  490SOL     MW 1960   0.467   2.624   1.132
  491SOL     OW 1961   1.266   1.770   1.993
  491SOL    HW1 1962   1.224   1.855   2.006
  491SOL    HW2 1963   1.198   1.716   1.953
  491SOL     MW 1964   1.252   1.774   1.990
  492SOL     OW 1965   0.257   0.714   2.093
  492SOL    HW1 1966   0.347   0.682   2.096
  492SOL    HW2 1967   0.254   0.770   2.015
  492SOL     MW 1968   0.268   0.717   2.083
  493SOL     OW 1969   1.288   2.185   0.039
  493SOL    HW1 1970   1.322   2.142   0.117
  493SOL    HW2 1971   1.240   2.261   0.073
  493SOL     MW 1972   1.286   2.189   0.053
  494SOL     OW 1973   0.908   2.101   1.228
  494SOL    HW1 1974   0.823   2.135   1.257
  494SOL    HW2 1975   0.967   2.118   1.302
  494SOL     MW 1976   0.905   2.107   1.241
  495SOL     OW 1977   0.269   0.797   2.523
  495SOL    HW1 1978   0.241   0.711   2.491
  495SOL    HW2 1979   0.283   0.849   2.443
  495SOL     MW 1980   0.267   0.793   2.508
  496SOL     OW 1981   3.145   2.168   0.108
  496SOL    HW1 1982   3.167   2.159   0.015
  496SOL    HW2 1983   3.049   2.174   0.110
  496SOL     MW 1984   3.135   2.167   0.097
  497SOL     OW 1985   2.417   0.179   2.308
  497SOL    HW1 1986   2.477   0.108   2.331
  497SOL    HW2 1987   2.333   0.152   2.344
  497SOL     MW 1988   2.414   0.166   2.315
  498SOL     OW 1989   0.758   2.921   2.422
  498SOL    HW1 1990   0.664   2.906   2.423
  498SOL    HW2 1991   0.787   2.893   2.509
  498SOL     MW 1992   0.750   2.916   2.433
  499SOL     OW 1993   1.048   1.320   0.041
  499SOL    HW1 1994   1.006   1.400   0.072
  499SOL    HW2 1995   1.125   1.350  -0.007
  499SOL     MW 1996   1.052   1.334   0.039
  500SOL     OW 1997   0.964   3.025   3.024
  500SOL    HW1 1998   0.888   3.080   3.004
  500SOL    HW2 1999   0.978   3.037   3.118
  500SOL     MW 2000   0.956   3.034   3.033
  501SOL     OW 2001   1.102   0.860   0.465
  501SOL    HW1 2002   1.104   0.881   0.558
  501SOL    HW2 2003   1.032   0.915   0.430
  501SOL     MW 2004   1.094   0.870   0.472
  502SOL     OW 2005   2.124   2.442   1.544
  502SOL    HW1 2006   2.171   2.504   1.599
  502SOL    HW2 2007   2.032   2.454   1.567
  502SOL     MW 2008   2.118   2.452   1.554
  503SOL     OW 2009   2.162   2.998   2.638
  503SOL    HW1 2010   2.208   3.044   2.709
  503SOL    HW2 2011   2.104   3.064   2.600
  503SOL     MW 2012   2.161   3.012   2.642
  504SOL     OW 2013   3.018   2.889   0.962
  504SOL    HW1 2014   3.041   2.848   0.878
  504SOL    HW2 2015   2.964   2.964   0.937
  504SOL     MW 2016   3.014   2.893   0.948
  505SOL     OW 2017   2.728   2.550   0.881
  505SOL    HW1 2018   2.688   2.489   0.820
  505SOL    HW2 2019   2.654   2.587   0.930
  505SOL     MW 2020   2.713   2.547   0.880
  506SOL     OW 2021   1.689   1.006   2.356
  506SOL    HW1 2022   1.692   1.091   2.399
  506SOL    HW2 2023   1.598   0.978   2.364
  506SOL     MW 2024   1.677   1.013   2.362
  507SOL     OW 2025   0.286   0.893   1.889
  507SOL    HW1 2026   0.295   0.867   1.798
  507SOL    HW2 2027   0.214   0.955   1.890
  507SOL     MW 2028   0.278   0.897   1.878
  508SOL     OW 2029   2.447   0.982   1.031
  508SOL    HW1 2030   2.499   0.947   0.958
  508SOL    HW2 2031   2.503   1.051   1.068
  508SOL     MW 2032   2.461   0.986   1.026
  509SOL     OW 2033   2.335   0.744   1.119
  509SOL    HW1 2034   2.383   0.822   1.092
  509SOL    HW2 2035   2.403   0.683   1.149
  509SOL     MW 2036   2.350   0.746   1.120
  510SOL     OW 2037   2.171   3.047   1.002
  510SOL    HW1 2038   2.086   3.051   0.958
  510SOL    HW2 2039   2.235   3.064   0.933
  510SOL     MW 2040   2.168   3.049   0.987
  511SOL     OW 2041   0.672   1.250   0.992
  511SOL    HW1 2042   0.762   1.223   1.011
  511SOL    HW2 2043   0.647   1.305   1.067
  511SOL     MW 2044   0.681   1.254   1.004
  512SOL     OW 2045   0.868   2.428   2.358
  512SOL    HW1 2046   0.869   2.448   2.264
  512SOL    HW2 2047   0.780   2.394   2.374
  512SOL     MW 2048   0.857   2.426   2.348
  513SOL     OW 2049   1.647   3.135   2.179
  513SOL    HW1 2050   1.669   3.048   2.212
  513SOL    HW2 2051   1.653   3.127   2.084
  513SOL     MW 2052   1.651   3.122   2.171
  514SOL     OW 2053   2.257   1.107   0.511
  514SOL    HW1 2054   2.268   1.033   0.452
  514SOL    HW2 2055   2.318   1.173   0.479
  514SOL     MW 2056   2.266   1.106   0.499
  515SOL     OW 2057   0.215   0.211   2.117
  515SOL    HW1 2058   0.206   0.306   2.125
  515SOL    HW2 2059   0.139   0.176   2.165
  515SOL     MW 2060   0.204   0.219   2.124
  516SOL     OW 2061   2.794   0.823   1.909
  516SOL    HW1 2062   2.768   0.731   1.918
  516SOL    HW2 2063   2.785   0.859   1.997
  516SOL     MW 2064   2.790   0.816   1.922
  517SOL     OW 2065   3.050   2.240   1.524
  517SOL    HW1 2066   3.044   2.162   1.579
  517SOL    HW2 2067   3.138   2.274   1.539
  517SOL     MW 2068   3.060   2.235   1.533
  518SOL     OW 2069   1.315   2.414   2.024
  518SOL    HW1 2070   1.311   2.507   1.999
  518SOL    HW2 2071   1.386   2.378   1.970
  518SOL     MW 2072   1.324   2.421   2.014
  519SOL     OW 2073   0.851   0.293   0.798
  519SOL    HW1 2074   0.894   0.303   0.713
  519SOL    HW2 2075   0.917   0.252   0.854
  519SOL     MW 2076   0.865   0.289   0.794
  520SOL     OW 2077   2.920   1.867   3.044
  520SOL    HW1 2078   2.984   1.912   2.989
  520SOL    HW2 2079   2.940   1.774   3.033
  520SOL     MW 2080   2.931   1.861   3.035
  521SOL     OW 2081   2.805   2.054   1.856
  521SOL    HW1 2082   2.766   1.971   1.830
  521SOL    HW2 2083   2.833   2.041   1.947
  521SOL     MW 2084   2.803   2.042   1.864
  522SOL     OW 2085   2.465   1.586   3.170
  522SOL    HW1 2086   2.503   1.647   3.107
  522SOL    HW2 2087   2.495   1.500   3.140
  522SOL     MW 2088   2.474   1.583   3.158
  523SOL     OW 2089   1.311   1.259   0.688
  523SOL    HW1 2090   1.263   1.209   0.754
  523SOL    HW2 2091   1.346   1.193   0.628
  523SOL     MW 2092   1.309   1.244   0.689
  524SOL     OW 2093   0.857   1.803   0.570
  524SOL    HW1 2094   0.951   1.821   0.562
  524SOL    HW2 2095   0.850   1.708   0.563
  524SOL     MW 2096   0.868   1.793   0.568
  525SOL     OW 2097   0.218   0.219   1.834
  525SOL    HW1 2098   0.215   0.194   1.926
  525SOL    HW2 2099   0.311   0.219   1.812
  525SOL     MW 2100   0.230   0.216   1.843
  526SOL     OW 2101   2.109   2.382   2.035
  526SOL    HW1 2102   2.165   2.311   2.064
  526SOL    HW2 2103   2.039   2.339   1.985
  526SOL     MW 2104   2.107   2.368   2.032
  527SOL     OW 2105   2.450   1.304   2.870
  527SOL    HW1 2106   2.496   1.304   2.953
  527SOL    HW2 2107   2.369   1.351   2.887
  527SOL     MW 2108   2.446   1.310   2.883
  528SOL     OW 2109   2.558   2.161   1.899
  528SOL    HW1 2110   2.649   2.135   1.885
  528SOL    HW2 2111   2.557   2.196   1.988
  528SOL     MW 2112   2.570   2.162   1.908
  529SOL     OW 2113   1.095   2.595   0.379
  529SOL    HW1 2114   1.185   2.600   0.412
  529SOL    HW2 2115   1.076   2.502   0.373
  529SOL     MW 2116   1.104   2.584   0.382
  530SOL     OW 2117   0.580   1.423   1.184
  530SOL    HW1 2118   0.495   1.434   1.142
  530SOL    HW2 2119   0.623   1.508   1.176
  530SOL     MW 2120   0.575   1.435   1.178
  531SOL     OW 2121   2.817   0.957   1.448
  531SOL    HW1 2122   2.821   1.038   1.396
  531SOL    HW2 2123   2.745   0.907   1.409
  531SOL     MW 2124   2.808   0.961   1.436
  532SOL     OW 2125   1.616   0.643   2.523
  532SOL    HW1 2126   1.650   0.727   2.553
  532SOL    HW2 2127   1.631   0.643   2.428
  532SOL     MW 2128   1.622   0.653   2.514
  533SOL     OW 2129   2.898   2.476   2.288
  533SOL    HW1 2130   2.828   2.419   2.322
  533SOL    HW2 2131   2.977   2.446   2.333
  533SOL     MW 2132   2.899   2.465   2.298
  534SOL     OW 2133   1.741   1.223   2.513
  534SOL    HW1 2134   1.827   1.183   2.524
  534SOL    HW2 2135   1.689   1.191   2.587
  534SOL     MW 2136   1.745   1.214   2.524
  535SOL     OW 2137   1.395   1.621   1.262
  535SOL    HW1 2138   1.434   1.656   1.182
  535SOL    HW2 2139   1.437   1.536   1.274
  535SOL     MW 2140   1.406   1.615   1.253
  536SOL     OW 2141   2.421   2.169   1.667
  536SOL    HW1 2142   2.462   2.170   1.753
  536SOL    HW2 2143   2.443   2.255   1.630
  536SOL     MW 2144   2.429   2.180   1.673
  537SOL     OW 2145   0.107   1.485   0.893
  537SOL    HW1 2146   0.127   1.426   0.820
  537SOL    HW2 2147   0.184   1.481   0.949
  537SOL     MW 2148   0.119   1.477   0.891
  538SOL     OW 2149   1.508   0.010   0.643
  538SOL    HW1 2150   1.575  -0.054   0.667
  538SOL    HW2 2151   1.547   0.058   0.570
  538SOL     MW 2152   1.522   0.008   0.636
  539SOL     OW 2153   1.713   0.833   1.802
  539SOL    HW1 2154   1.709   0.738   1.807
  539SOL    HW2 2155   1.807   0.853   1.798
  539SOL     MW 2156   1.724   0.824   1.802
  540SOL     OW 2157   1.707   2.358  -0.006
  540SOL    HW1 2158   1.726   2.287   0.055
  540SOL    HW2 2159   1.621   2.337  -0.042
  540SOL     MW 2160   1.699   2.346  -0.003
  541SOL     OW 2161   0.980   1.462   0.876
  541SOL    HW1 2162   0.950   1.459   0.967
  541SOL    HW2 2163   0.910   1.418   0.827
  541SOL     MW 2164   0.967   1.456   0.881
  542SOL     OW 2165   2.889   3.131   2.777
  542SOL    HW1 2166   2.886   3.077   2.855
  542SOL    HW2 2167   2.864   3.219   2.807
  542SOL     MW 2168   2.885   3.135   2.791
  543SOL     OW 2169   3.002   0.405   0.334
  543SOL    HW1 2170   3.080   0.354   0.357
  543SOL    HW2 2171   2.963   0.359   0.260
  543SOL     MW 2172   3.007   0.393   0.328
  544SOL     OW 2173   0.813   1.956   0.347
  544SOL    HW1 2174   0.835   1.904   0.425
  544SOL    HW2 2175   0.718   1.961   0.348
  544SOL     MW 2176   0.804   1.950   0.357
  545SOL     OW 2177   3.105   0.396   2.288
  545SOL    HW1 2178   3.028   0.386   2.232
  545SOL    HW2 2179   3.169   0.441   2.233
  545SOL     MW 2180   3.103   0.400   2.274
  546SOL     OW 2181   1.308   1.343   1.590
  546SOL    HW1 2182   1.281   1.380   1.505
  546SOL    HW2 2183   1.381   1.284   1.568
  546SOL     MW 2184   1.314   1.340   1.576
  547SOL     OW 2185   0.064   1.548   0.380
  547SOL    HW1 2186   0.063   1.643   0.390
  547SOL    HW2 2187   0.153   1.522   0.406
  547SOL     MW 2188   0.076   1.557   0.385
  548SOL     OW 2189   2.235   0.198   3.082
  548SOL    HW1 2190   2.211   0.271   3.024
  548SOL    HW2 2191   2.319   0.167   3.048
  548SOL     MW 2192   2.243   0.203   3.070
  549SOL     OW 2193   1.359   2.923   2.874
  549SOL    HW1 2194   1.397   2.932   2.961
  549SOL    HW2 2195   1.333   2.832   2.868
  549SOL     MW 2196   1.361   2.913   2.884
  550SOL     OW 2197   1.806   1.450   2.370
  550SOL    HW1 2198   1.740   1.454   2.301
  550SOL    HW2 2199   1.789   1.366   2.413
  550SOL     MW 2200   1.795   1.439   2.366
  551SOL     OW 2201  -0.023   0.524   1.673
  551SOL    HW1 2202   0.045   0.474   1.628
  551SOL    HW2 2203  -0.001   0.615   1.656
  551SOL     MW 2204  -0.011   0.529   1.665
  552SOL     OW 2205   1.078   0.578   3.110
  552SOL    HW1 2206   1.151   0.638   3.128
  552SOL    HW2 2207   1.087   0.509   3.176
  552SOL     MW 2208   1.088   0.577   3.121
  553SOL     OW 2209   0.449   1.691   2.156
  553SOL    HW1 2210   0.511   1.695   2.083
  553SOL    HW2 2211   0.496   1.646   2.226
  553SOL     MW 2212   0.463   1.686   2.156
  554SOL     OW 2213   1.027   1.819   2.204
  554SOL    HW1 2214   1.040   1.885   2.137
  554SOL    HW2 2215   0.932   1.810   2.211
  554SOL     MW 2216   1.017   1.826   2.196
  555SOL     OW 2217   0.986   1.343   2.065
  555SOL    HW1 2218   0.916   1.284   2.092
  555SOL    HW2 2219   1.055   1.285   2.032
  555SOL     MW 2220   0.986   1.328   2.064
  556SOL     OW 2221   2.746   0.419   0.716
  556SOL    HW1 2222   2.695   0.500   0.706
  556SOL    HW2 2223   2.691   0.364   0.771
  556SOL     MW 2224   2.732   0.423   0.722
  557SOL     OW 2225   0.736   2.526   1.450
  557SOL    HW1 2226   0.732   2.449   1.506
  557SOL    HW2 2227   0.820   2.517   1.404
  557SOL     MW 2228   0.747   2.515   1.451
  558SOL     OW 2229   2.050   1.755   2.327
  558SOL    HW1 2230   1.963   1.783   2.356
  558SOL    HW2 2231   2.037   1.667   2.292
  558SOL     MW 2232   2.037   1.747   2.326
  559SOL     OW 2233   2.905   2.731   1.603
  559SOL    HW1 2234   2.960   2.809   1.607
  559SOL    HW2 2235   2.825   2.761   1.561
  559SOL     MW 2236   2.902   2.745   1.598
  560SOL     OW 2237   2.476   1.607   1.614
  560SOL    HW1 2238   2.424   1.686   1.606
  560SOL    HW2 2239   2.417   1.536   1.591
  560SOL     MW 2240   2.462   1.608   1.610
  561SOL     OW 2241   1.230  -0.009   0.719
  561SOL    HW1 2242   1.242   0.050   0.793
  561SOL    HW2 2243   1.318  -0.017   0.681
  561SOL     MW 2244   1.243  -0.002   0.723
  562SOL     OW 2245   0.611   0.917   1.183
  562SOL    HW1 2246   0.699   0.907   1.148
  562SOL    HW2 2247   0.559   0.952   1.111
  562SOL     MW 2248   0.615   0.920   1.169
  563SOL     OW 2249   1.690   3.017   0.728
  563SOL    HW1 2250   1.771   3.027   0.777
  563SOL    HW2 2251   1.631   2.973   0.789
  563SOL     MW 2252   1.693   3.012   0.742
  564SOL     OW 2253   1.122   3.022   2.261
  564SOL    HW1 2254   1.114   3.008   2.356
  564SOL    HW2 2255   1.211   3.055   2.250
  564SOL     MW 2256   1.132   3.024   2.272
  565SOL     OW 2257   2.240   1.163   0.977
  565SOL    HW1 2258   2.202   1.166   0.889
  565SOL    HW2 2259   2.301   1.089   0.974
  565SOL     MW 2260   2.243   1.154   0.965
  566SOL     OW 2261   2.246   0.812   1.363
  566SOL    HW1 2262   2.258   0.736   1.420
  566SOL    HW2 2263   2.275   0.782   1.277
  566SOL     MW 2264   2.252   0.799   1.359
  567SOL     OW 2265   1.801   0.431   1.568
  567SOL    HW1 2266   1.796   0.336   1.562
  567SOL    HW2 2267   1.731   0.463   1.510
  567SOL     MW 2268   1.792   0.423   1.560
  568SOL     OW 2269   0.509   0.619   2.115
  568SOL    HW1 2270   0.523   0.614   2.210
  568SOL    HW2 2271   0.578   0.678   2.084
  568SOL     MW 2272   0.520   0.626   2.123
  569SOL     OW 2273   0.747   1.360   0.754
  569SOL    HW1 2274   0.717   1.331   0.840
  569SOL    HW2 2275   0.703   1.300   0.692
  569SOL     MW 2276   0.737   1.348   0.757
  570SOL     OW 2277   2.626   2.991   1.681
  570SOL    HW1 2278   2.709   3.034   1.703
  570SOL    HW2 2279   2.597   2.952   1.764
  570SOL     MW 2280   2.633   2.992   1.694
  571SOL     OW 2281   2.153   1.687   0.401
  571SOL    HW1 2282   2.206   1.763   0.421
  571SOL    HW2 2283   2.194   1.648   0.324
  571SOL     MW 2284   2.165   1.692   0.394
  572SOL     OW 2285   2.458   1.701   1.234
  572SOL    HW1 2286   2.514   1.776   1.257
  572SOL    HW2 2287   2.463   1.696   1.139
  572SOL     MW 2288   2.466   1.710   1.225
  573SOL     OW 2289   0.219   0.909   0.255
  573SOL    HW1 2290   0.150   0.975   0.254
  573SOL    HW2 2291   0.173   0.826   0.245
  573SOL     MW 2292   0.204   0.907   0.254
  574SOL     OW 2293   1.052   2.233   2.389
  574SOL    HW1 2294   1.130   2.287   2.404
  574SOL    HW2 2295   0.981   2.297   2.380
  574SOL     MW 2296   1.053   2.248   2.390
  575SOL     OW 2297   2.097   2.254   3.083
  575SOL    HW1 2298   2.089   2.234   3.177
  575SOL    HW2 2299   2.008   2.245   3.049
  575SOL     MW 2300   2.084   2.251   3.091
  576SOL     OW 2301   1.895   0.989   0.418
  576SOL    HW1 2302   1.892   0.916   0.480
  576SOL    HW2 2303   1.959   0.961   0.353
  576SOL     MW 2304   1.903   0.976   0.418
  577SOL     OW 2305   1.329   1.063   2.612
  577SOL    HW1 2306   1.307   1.155   2.624
  577SOL    HW2 2307   1.247   1.016   2.626
  577SOL     MW 2308   1.316   1.069   2.616
  578SOL     OW 2309   2.769   1.374   1.497
  578SOL    HW1 2310   2.722   1.444   1.453
  578SOL    HW2 2311   2.790   1.311   1.427
  578SOL     MW 2312   2.766   1.375   1.482
  579SOL     OW 2313   0.764   0.930   2.256
  579SOL    HW1 2314   0.713   0.896   2.329
  579SOL    HW2 2315   0.743   0.873   2.182
  579SOL     MW 2316   0.755   0.918   2.256
  580SOL     OW 2317   1.613   1.463   2.178
  580SOL    HW1 2318   1.539   1.523   2.184
  580SOL    HW2 2319   1.587   1.399   2.111
  580SOL     MW 2320   1.600   1.462   2.170
  581SOL     OW 2321   3.170   0.066   2.530
  581SOL    HW1 2322   3.109   0.127   2.572
  581SOL    HW2 2323   3.253   0.080   2.575
  581SOL     MW 2324   3.173   0.075   2.541
  582SOL     OW 2325   2.032   2.951   3.159
  582SOL    HW1 2326   2.113   2.960   3.108
  582SOL    HW2 2327   2.062   2.922   3.245
  582SOL     MW 2328   2.047   2.948   3.164
  583SOL     OW 2329   2.193   0.448   2.669
  583SOL    HW1 2330   2.270   0.499   2.643
  583SOL    HW2 2331   2.123   0.513   2.673
  583SOL     MW 2332   2.194   0.463   2.666
  584SOL     OW 2333   1.961   1.854   1.027
  584SOL    HW1 2334   2.005   1.778   0.989
  584SOL    HW2 2335   1.907   1.888   0.955
  584SOL     MW 2336   1.959   1.849   1.013
  585SOL     OW 2337   2.078   0.444   0.070
  585SOL    HW1 2338   2.047   0.509   0.007
  585SOL    HW2 2339   2.173   0.448   0.063
  585SOL     MW 2340   2.086   0.453   0.061
  586SOL     OW 2341   1.054   0.124   2.359
  586SOL    HW1 2342   1.009   0.202   2.392
  586SOL    HW2 2343   0.983   0.062   2.341
  586SOL     MW 2344   1.039   0.126   2.361
  587SOL     OW 2345   0.240   2.899   2.965
  587SOL    HW1 2346   0.247   2.993   2.979
  587SOL    HW2 2347   0.303   2.880   2.895
  587SOL     MW 2348   0.249   2.909   2.957
  588SOL     OW 2349   2.803   1.305   2.896
  588SOL    HW1 2350   2.839   1.290   2.809
  588SOL    HW2 2351   2.742   1.232   2.910
  588SOL     MW 2352   2.800   1.294   2.887
  589SOL     OW 2353   0.944   0.225   1.695
  589SOL    HW1 2354   1.013   0.228   1.761
  589SOL    HW2 2355   0.871   0.182   1.738
  589SOL     MW 2356   0.943   0.220   1.709
  590SOL     OW 2357   2.819   2.757   1.861
  590SOL    HW1 2358   2.856   2.748   1.773
  590SOL    HW2 2359   2.874   2.822   1.904
  590SOL     MW 2360   2.831   2.764   1.855
  591SOL     OW 2361   1.452   1.979   2.229
  591SOL    HW1 2362   1.433   1.999   2.137
  591SOL    HW2 2363   1.367   1.957   2.267
  591SOL     MW 2364   1.439   1.979   2.222
  592SOL     OW 2365   1.321   2.605   0.751
  592SOL    HW1 2366   1.299   2.515   0.772
  592SOL    HW2 2367   1.344   2.604   0.658
  592SOL     MW 2368   1.321   2.594   0.742
  593SOL     OW 2369   3.195   0.138   2.267
  593SOL    HW1 2370   3.159   0.226   2.271
  593SOL    HW2 2371   3.190   0.106   2.358
  593SOL     MW 2372   3.190   0.145   2.279
  594SOL     OW 2373   2.279   0.557   1.477
  594SOL    HW1 2374   2.184   0.554   1.468
  594SOL    HW2 2375   2.306   0.465   1.477
  594SOL     MW 2376   2.271   0.545   1.476
  595SOL     OW 2377   0.647   1.752   1.977
  595SOL    HW1 2378   0.699   1.701   1.915
  595SOL    HW2 2379   0.702   1.759   2.054
  595SOL     MW 2380   0.661   1.746   1.979
  596SOL     OW 2381   0.028   1.821   0.392
  596SOL    HW1 2382   0.081   1.888   0.348
  596SOL    HW2 2383  -0.045   1.804   0.332
  596SOL     MW 2384   0.026   1.827   0.378
  597SOL     OW 2385   2.192   2.020   0.578
  597SOL    HW1 2386   2.287   2.033   0.569
  597SOL    HW2 2387   2.153   2.095   0.533
  597SOL     MW 2388   2.199   2.032   0.571
  598SOL     OW 2389   1.310   2.181   0.418
  598SOL    HW1 2390   1.362   2.184   0.498
  598SOL    HW2 2391   1.353   2.116   0.363
  598SOL     MW 2392   1.322   2.173   0.421
  599SOL     OW 2393   2.811   1.594   1.686
  599SOL    HW1 2394   2.812   1.518   1.628
  599SOL    HW2 2395   2.795   1.557   1.773
  599SOL     MW 2396   2.809   1.579   1.690
  600SOL     OW 2397   1.594   1.704   2.764
  600SOL    HW1 2398   1.654   1.680   2.693
  600SOL    HW2 2399   1.583   1.798   2.756
  600SOL     MW 2400   1.600   1.713   2.754
  601SOL     OW 2401   0.993   2.408   0.748
  601SOL    HW1 2402   0.986   2.493   0.705
  601SOL    HW2 2403   0.938   2.417   0.826
  601SOL     MW 2404   0.985   2.420   0.753
  602SOL     OW 2405   3.055   0.625   0.167
  602SOL    HW1 2406   2.969   0.626   0.123
  602SOL    HW2 2407   3.048   0.554   0.232
  602SOL     MW 2408   3.043   0.616   0.170
  603SOL     OW 2409   2.763   2.850   0.011
  603SOL    HW1 2410   2.786   2.852   0.104
  603SOL    HW2 2411   2.695   2.917   0.002
  603SOL     MW 2412   2.757   2.859   0.022
  604SOL     OW 2413   0.087   2.733   2.014
  604SOL    HW1 2414   0.133   2.671   1.958
  604SOL    HW2 2415   0.004   2.689   2.034
  604SOL     MW 2416   0.082   2.720   2.009
  605SOL     OW 2417   0.278   1.119   0.848
  605SOL    HW1 2418   0.363   1.086   0.876
  605SOL    HW2 2419   0.215   1.059   0.887
  605SOL     MW 2420   0.281   1.107   0.857
  606SOL     OW 2421   0.593   1.788   0.695
  606SOL    HW1 2422   0.520   1.757   0.642
  606SOL    HW2 2423   0.669   1.783   0.638
  606SOL     MW 2424   0.594   1.783   0.681
  607SOL     OW 2425   1.476   2.282   3.076
  607SOL    HW1 2426   1.516   2.205   3.035
  607SOL    HW2 2427   1.409   2.247   3.135
  607SOL     MW 2428   1.472   2.267   3.078
  608SOL     OW 2429   0.463   1.914   1.030
  608SOL    HW1 2430   0.474   1.956   1.115
  608SOL    HW2 2431   0.525   1.959   0.973
  608SOL     MW 2432   0.472   1.925   1.033
  609SOL     OW 2433   0.622   2.022   0.836
  609SOL    HW1 2434   0.716   2.037   0.825
  609SOL    HW2 2435   0.603   1.948   0.779
  609SOL     MW 2436   0.632   2.015   0.828
  610SOL     OW 2437   1.420   2.014   0.227
  610SOL    HW1 2438   1.509   2.007   0.261
  610SOL    HW2 2439   1.423   1.971   0.141
  610SOL     MW 2440   1.432   2.008   0.220
  611SOL     OW 2441   3.063   1.447   2.578
  611SOL    HW1 2442   3.023   1.496   2.506
  611SOL    HW2 2443   3.000   1.378   2.598
  611SOL     MW 2444   3.050   1.444   2.572
  612SOL     OW 2445   1.383   3.121   2.242
  612SOL    HW1 2446   1.474   3.131   2.214
  612SOL    HW2 2447   1.340   3.202   2.215
  612SOL     MW 2448   1.389   3.132   2.235
  613SOL     OW 2449   2.888   2.298   2.078
  613SOL    HW1 2450   2.847   2.348   2.008
  613SOL    HW2 2451   2.894   2.358   2.152
  613SOL     MW 2452   2.884   2.312   2.079
  614SOL     OW 2453   2.182   1.835   3.126
  614SOL    HW1 2454   2.242   1.858   3.198
  614SOL    HW2 2455   2.233   1.852   3.047
  614SOL     MW 2456   2.196   1.840   3.125
  615SOL     OW 2457   2.691   2.120   2.549
  615SOL    HW1 2458   2.605   2.124   2.592
  615SOL    HW2 2459   2.753   2.110   2.621
  615SOL     MW 2460   2.688   2.119   2.564
  616SOL     OW 2461   2.355   0.090   1.624
  616SOL    HW1 2462   2.424   0.045   1.576
  616SOL    HW2 2463   2.274   0.051   1.593
  616SOL     MW 2464   2.353   0.079   1.614
  617SOL     OW 2465   1.428   1.889   0.806
  617SOL    HW1 2466   1.493   1.912   0.739
  617SOL    HW2 2467   1.386   1.810   0.773
  617SOL     MW 2468   1.431   1.882   0.794
  618SOL     OW 2469   2.165   2.616   0.722
  618SOL    HW1 2470   2.132   2.600   0.810
  618SOL    HW2 2471   2.252   2.574   0.721
  618SOL     MW 2472   2.172   2.608   0.733
  619SOL     OW 2473   0.646   2.053   2.900
  619SOL    HW1 2474   0.666   2.015   2.986
  619SOL    HW2 2475   0.644   2.148   2.916
  619SOL     MW 2476   0.648   2.060   2.913
  620SOL     OW 2477   0.433   0.396   1.555
  620SOL    HW1 2478   0.452   0.490   1.562
  620SOL    HW2 2479   0.337   0.391   1.564
  620SOL     MW 2480   0.423   0.408   1.557
  621SOL     OW 2481   0.686   0.444   0.378
  621SOL    HW1 2482   0.751   0.503   0.415
  621SOL    HW2 2483   0.627   0.501   0.328
  621SOL     MW 2484   0.686   0.459   0.376
  622SOL     OW 2485   1.709   1.766   0.225
  622SOL    HW1 2486   1.771   1.710   0.272
  622SOL    HW2 2487   1.625   1.720   0.233
  622SOL     MW 2488   1.706   1.753   0.232
  623SOL     OW 2489   0.103   2.333   1.579
  623SOL    HW1 2490   0.104   2.396   1.507
  623SOL    HW2 2491   0.194   2.304   1.585
  623SOL     MW 2492   0.115   2.337   1.570
  624SOL     OW 2493   1.667   1.158   3.049
  624SOL    HW1 2494   1.648   1.231   2.990
  624SOL    HW2 2495   1.689   1.085   2.991
  624SOL     MW 2496   1.667   1.158   3.034
  625SOL     OW 2497   2.077   1.000   2.295
  625SOL    HW1 2498   2.002   1.008   2.236
  625SOL    HW2 2499   2.044   1.030   2.380
  625SOL     MW 2500   2.063   1.005   2.298
  626SOL     OW 2501   0.696   2.898   1.088
  626SOL    HW1 2502   0.761   2.835   1.056
  626SOL    HW2 2503   0.620   2.885   1.032
  626SOL     MW 2504   0.695   2.888   1.077
  627SOL     OW 2505   0.542   2.204   1.771
  627SOL    HW1 2506   0.606   2.236   1.707
  627SOL    HW2 2507   0.544   2.268   1.841
  627SOL     MW 2508   0.550   2.216   1.772
  628SOL     OW 2509   2.278   3.154   2.834
  628SOL    HW1 2510   2.254   3.235   2.791
  628SOL    HW2 2511   2.374   3.151   2.828
  628SOL     MW 2512   2.287   3.164   2.828
  629SOL     OW 2513   1.517   1.042   1.785
  629SOL    HW1 2514   1.589   0.979   1.789
  629SOL    HW2 2515   1.441   0.990   1.759
  629SOL     MW 2516   1.516   1.027   1.782
  630SOL     OW 2517   0.181   1.320   0.689
  630SOL    HW1 2518   0.213   1.242   0.735
  630SOL    HW2 2519   0.107   1.288   0.638
  630SOL     MW 2520   0.176   1.306   0.689
  631SOL     OW 2521   2.393   2.467   0.683
  631SOL    HW1 2522   2.482   2.432   0.682
  631SOL    HW2 2523   2.360   2.453   0.594
  631SOL     MW 2524   2.400   2.461   0.672
  632SOL     OW 2525   1.929   2.043   2.814
  632SOL    HW1 2526   1.918   2.117   2.874
  632SOL    HW2 2527   1.928   1.966   2.870
  632SOL     MW 2528   1.927   2.043   2.829
  633SOL     OW 2529   0.424   2.826   2.780
  633SOL    HW1 2530   0.396   2.741   2.747
  633SOL    HW2 2531   0.503   2.808   2.832
  633SOL     MW 2532   0.431   2.813   2.782
  634SOL     OW 2533   1.850   0.247   1.189
  634SOL    HW1 2534   1.904   0.188   1.242
  634SOL    HW2 2535   1.911   0.315   1.160
  634SOL     MW 2536   1.865   0.248   1.192
  635SOL     OW 2537   3.021   3.068   0.644
  635SOL    HW1 2538   2.985   3.088   0.730
  635SOL    HW2 2539   3.053   2.978   0.652
  635SOL     MW 2540   3.020   3.059   0.656
  636SOL     OW 2541   1.733   2.282   0.961
  636SOL    HW1 2542   1.657   2.223   0.957
  636SOL    HW2 2543   1.797   2.242   0.902
  636SOL     MW 2544   1.731   2.269   0.953
  637SOL     OW 2545   2.343   0.291   0.752
  637SOL    HW1 2546   2.356   0.375   0.709
  637SOL    HW2 2547   2.429   0.267   0.786
  637SOL     MW 2548   2.355   0.298   0.751
  638SOL     OW 2549   2.428   2.151   2.640
  638SOL    HW1 2550   2.372   2.155   2.717
  638SOL    HW2 2551   2.395   2.077   2.590
  638SOL     MW 2552   2.417   2.142   2.644
  639SOL     OW 2553   1.352   2.598   0.477
  639SOL    HW1 2554   1.404   2.674   0.450
  639SOL    HW2 2555   1.380   2.528   0.418
  639SOL     MW 2556   1.362   2.599   0.466
  640SOL     OW 2557   1.828   1.228   1.189
  640SOL    HW1 2558   1.830   1.274   1.273
  640SOL    HW2 2559   1.850   1.295   1.124
  640SOL     MW 2560   1.831   1.243   1.191
  641SOL     OW 2561   1.063   1.873   1.448
  641SOL    HW1 2562   1.071   1.969   1.443
  641SOL    HW2 2563   1.022   1.849   1.365
  641SOL     MW 2564   1.059   1.882   1.437
  642SOL     OW 2565   3.133   3.113   2.112
  642SOL    HW1 2566   3.144   3.194   2.162
  642SOL    HW2 2567   3.207   3.058   2.139
  642SOL     MW 2568   3.144   3.116   2.122
  643SOL     OW 2569   1.102   2.256   2.120
  643SOL    HW1 2570   1.093   2.239   2.214
  643SOL    HW2 2571   1.187   2.298   2.110
  643SOL     MW 2572   1.111   2.259   2.131
  644SOL     OW 2573   2.522   1.478   2.669
  644SOL    HW1 2574   2.458   1.547   2.688
  644SOL    HW2 2575   2.503   1.410   2.734
  644SOL     MW 2576   2.511   1.478   2.680
  645SOL     OW 2577   1.191   0.294   1.826
  645SOL    HW1 2578   1.270   0.279   1.877
  645SOL    HW2 2579   1.149   0.369   1.868
  645SOL     MW 2580   1.195   0.302   1.838
  646SOL     OW 2581   1.982   0.746   1.808
  646SOL    HW1 2582   1.923   0.673   1.788
  646SOL    HW2 2583   1.975   0.758   1.902
  646SOL     MW 2584   1.974   0.738   1.817
  647SOL     OW 2585   0.489   2.893   2.375
  647SOL    HW1 2586   0.465   2.808   2.339
  647SOL    HW2 2587   0.503   2.949   2.298
  647SOL     MW 2588   0.488   2.889   2.361
  648SOL     OW 2589   2.460   2.411   1.554
  648SOL    HW1 2590   2.401   2.477   1.591
  648SOL    HW2 2591   2.416   2.380   1.475
  648SOL     MW 2592   2.447   2.415   1.549
  649SOL     OW 2593   0.085   0.563   0.522
  649SOL    HW1 2594  -0.004   0.593   0.544
  649SOL    HW2 2595   0.100   0.597   0.434
  649SOL     MW 2596   0.075   0.571   0.513
  650SOL     OW 2597   1.103   0.306   1.107
  650SOL    HW1 2598   1.157   0.385   1.109
  650SOL    HW2 2599   1.122   0.262   1.190
  650SOL     MW 2600   1.113   0.310   1.118
  651SOL     OW 2601   1.599   1.358   2.870
  651SOL    HW1 2602   1.525   1.419   2.873
  651SOL    HW2 2603   1.572   1.291   2.807
  651SOL     MW 2604   1.586   1.357   2.862
  652SOL     OW 2605   0.095   2.470   1.339
  652SOL    HW1 2606   0.091   2.389   1.289
  652SOL    HW2 2607   0.154   2.526   1.289
  652SOL     MW 2608   0.102   2.467   1.326
  653SOL     OW 2609   0.875   0.545   1.384
  653SOL    HW1 2610   0.800   0.603   1.371
  653SOL    HW2 2611   0.860   0.472   1.324
  653SOL     MW 2612   0.864   0.543   1.375
  654SOL     OW 2613   2.464   2.493   0.231
  654SOL    HW1 2614   2.407   2.463   0.302
  654SOL    HW2 2615   2.409   2.552   0.179
  654SOL     MW 2616   2.450   2.496   0.234
  655SOL     OW 2617   1.657   1.481   0.016
  655SOL    HW1 2618   1.727   1.513  -0.040
  655SOL    HW2 2619   1.701   1.456   0.098
  655SOL     MW 2620   1.671   1.482   0.020
  656SOL     OW 2621   0.701   0.379   2.330
  656SOL    HW1 2622   0.683   0.287   2.311
  656SOL    HW2 2623   0.781   0.376   2.384
  656SOL     MW 2624   0.709   0.367   2.335
  657SOL     OW 2625   0.307   0.491   0.178
  657SOL    HW1 2626   0.308   0.411   0.230
  657SOL    HW2 2627   0.389   0.535   0.200
  657SOL     MW 2628   0.318   0.486   0.187
  658SOL     OW 2629   2.614   2.542   2.733
  658SOL    HW1 2630   2.605   2.496   2.817
  658SOL    HW2 2631   2.567   2.487   2.671
  658SOL     MW 2632   2.607   2.529   2.736
  659SOL     OW 2633   1.840   2.991   1.793
  659SOL    HW1 2634   1.831   2.980   1.699
  659SOL    HW2 2635   1.880   2.909   1.823
  659SOL     MW 2636   1.844   2.979   1.785
  660SOL     OW 2637   0.966   1.786   1.689
  660SOL    HW1 2638   0.982   1.806   1.597
  660SOL    HW2 2639   0.885   1.735   1.690
  660SOL     MW 2640   0.958   1.782   1.678
  661SOL     OW 2641   0.603   0.203   0.716
  661SOL    HW1 2642   0.691   0.236   0.735
  661SOL    HW2 2643   0.595   0.124   0.769
  661SOL     MW 2644   0.613   0.197   0.725
  662SOL     OW 2645   2.299   2.600   1.677
  662SOL    HW1 2646   2.275   2.603   1.770
  662SOL    HW2 2647   2.297   2.692   1.649
  662SOL     MW 2648   2.296   2.612   1.685
  663SOL     OW 2649   1.467   0.322   0.089
  663SOL    HW1 2650   1.441   0.287   0.004
  663SOL    HW2 2651   1.533   0.261   0.121
  663SOL     MW 2652   1.472   0.310   0.082
  664SOL     OW 2653   1.659   3.095   1.079
  664SOL    HW1 2654   1.590   3.149   1.118
  664SOL    HW2 2655   1.612   3.031   1.026
  664SOL     MW 2656   1.644   3.094   1.077
  665SOL     OW 2657   1.191   1.043   2.199
  665SOL    HW1 2658   1.235   0.959   2.189
  665SOL    HW2 2659   1.255   1.099   2.242
  665SOL     MW 2660   1.205   1.039   2.203
  666SOL     OW 2661   0.636   1.041   1.764
  666SOL    HW1 2662   0.581   1.035   1.686
  666SOL    HW2 2663   0.725   1.048   1.730
  666SOL     MW 2664   0.640   1.041   1.749
  667SOL     OW 2665   2.594   2.279   0.107
  667SOL    HW1 2666   2.549   2.359   0.133
  667SOL    HW2 2667   2.554   2.255   0.023
  667SOL     MW 2668   2.583   2.286   0.099
  668SOL     OW 2669   2.315   0.823   2.728
  668SOL    HW1 2670   2.346   0.913   2.739
  668SOL    HW2 2671   2.284   0.798   2.815
  668SOL     MW 2672   2.315   0.832   2.741
  669SOL     OW 2673   1.779   1.631   2.573
  669SOL    HW1 2674   1.785   1.567   2.503
  669SOL    HW2 2675   1.804   1.714   2.532
  669SOL     MW 2676   1.783   1.634   2.559
  670SOL     OW 2677   2.394   1.250   2.177
  670SOL    HW1 2678   2.320   1.277   2.123
  670SOL    HW2 2679   2.463   1.229   2.113
  670SOL     MW 2680   2.394   1.250   2.162
  671SOL     OW 2681   0.822   2.337   0.094
  671SOL    HW1 2682   0.875   2.261   0.117
  671SOL    HW2 2683   0.807   2.382   0.177
  671SOL     MW 2684   0.827   2.333   0.107
  672SOL     OW 2685   0.540   1.671   0.939
  672SOL    HW1 2686   0.504   1.752   0.975
  672SOL    HW2 2687   0.568   1.694   0.851
  672SOL     MW 2688   0.539   1.684   0.933
  673SOL     OW 2689   0.633   1.122   1.361
  673SOL    HW1 2690   0.626   1.050   1.299
  673SOL    HW2 2691   0.711   1.170   1.333
  673SOL     MW 2692   0.642   1.119   1.349
  674SOL     OW 2693   2.658   0.665   2.491
  674SOL    HW1 2694   2.630   0.738   2.436
  674SOL    HW2 2695   2.679   0.595   2.429
  674SOL     MW 2696   2.657   0.665   2.476
  675SOL     OW 2697   2.268   0.192   0.500
  675SOL    HW1 2698   2.301   0.209   0.588
  675SOL    HW2 2699   2.187   0.143   0.513
  675SOL     MW 2700   2.262   0.188   0.513
  676SOL     OW 2701   2.875   2.596   2.698
  676SOL    HW1 2702   2.786   2.569   2.720
  676SOL    HW2 2703   2.921   2.513   2.680
  676SOL     MW 2704   2.870   2.582   2.699
  677SOL     OW 2705   2.813   1.006   0.748
  677SOL    HW1 2706   2.841   1.071   0.683
  677SOL    HW2 2707   2.881   1.007   0.814
  677SOL     MW 2708   2.825   1.015   0.748
  678SOL     OW 2709   2.628   0.814   1.316
  678SOL    HW1 2710   2.562   0.884   1.322
  678SOL    HW2 2711   2.656   0.814   1.225
  678SOL     MW 2712   2.623   0.823   1.305
  679SOL     OW 2713   1.765   3.021   2.559
  679SOL    HW1 2714   1.687   3.000   2.611
  679SOL    HW2 2715   1.746   2.986   2.472
  679SOL     MW 2716   1.753   3.014   2.555
  680SOL     OW 2717   0.304   0.275   0.350
  680SOL    HW1 2718   0.359   0.307   0.422
  680SOL    HW2 2719   0.353   0.202   0.314
  680SOL     MW 2720   0.317   0.270   0.355
  681SOL     OW 2721   2.145   0.446   2.040
  681SOL    HW1 2722   2.209   0.375   2.042
  681SOL    HW2 2723   2.066   0.407   2.003
  681SOL     MW 2724   2.143   0.432   2.035
  682SOL     OW 2725   0.311   2.612   0.371
  682SOL    HW1 2726   0.334   2.524   0.340
  682SOL    HW2 2727   0.217   2.607   0.389
  682SOL     MW 2728   0.302   2.600   0.370
  683SOL     OW 2729   0.863   1.304   1.564
  683SOL    HW1 2730   0.860   1.212   1.588
  683SOL    HW2 2731   0.898   1.348   1.641
  683SOL     MW 2732   0.867   1.298   1.577
  684SOL     OW 2733   2.104   1.194   0.738
  684SOL    HW1 2734   2.132   1.160   0.653
  684SOL    HW2 2735   2.031   1.137   0.764
  684SOL     MW 2736   2.098   1.182   0.730
  685SOL     OW 2737   2.704   0.550   1.907
  685SOL    HW1 2738   2.713   0.554   1.811
  685SOL    HW2 2739   2.673   0.461   1.924
  685SOL     MW 2740   2.701   0.539   1.897
  686SOL     OW 2741   1.098   1.202   0.279
  686SOL    HW1 2742   1.078   1.233   0.190
  686SOL    HW2 2743   1.074   1.274   0.336
  686SOL     MW 2744   1.093   1.215   0.275
  687SOL     OW 2745   2.550   1.644   0.621
  687SOL    HW1 2746   2.503   1.592   0.686
  687SOL    HW2 2747   2.607   1.701   0.673
  687SOL     MW 2748   2.551   1.645   0.636
  688SOL     OW 2749   2.195   1.583   0.652
  688SOL    HW1 2750   2.121   1.528   0.676
  688SOL    HW2 2751   2.181   1.603   0.559
  688SOL     MW 2752   2.184   1.579   0.643
  689SOL     OW 2753   1.150   2.816   0.698
  689SOL    HW1 2754   1.187   2.856   0.619
  689SOL    HW2 2755   1.212   2.747   0.722
  689SOL     MW 2756   1.163   2.812   0.691
  690SOL     OW 2757   2.363   1.865   0.140
  690SOL    HW1 2758   2.339   1.777   0.168
  690SOL    HW2 2759   2.459   1.868   0.147
  690SOL     MW 2760   2.372   1.854   0.144
  691SOL     OW 2761   0.907   1.518   0.172
  691SOL    HW1 2762   0.883   1.610   0.159
  691SOL    HW2 2763   0.827   1.469   0.156
  691SOL     MW 2764   0.894   1.524   0.168
  692SOL     OW 2765   3.110   2.083   0.742
  692SOL    HW1 2766   3.054   2.078   0.820
  692SOL    HW2 2767   3.156   2.166   0.751
  692SOL     MW 2768   3.108   2.093   0.753
  693SOL     OW 2769   1.828   2.799   1.340
  693SOL    HW1 2770   1.902   2.785   1.399
  693SOL    HW2 2771   1.867   2.808   1.253
  693SOL     MW 2772   1.842   2.799   1.337
  694SOL     OW 2773   2.973   0.740   1.003
  694SOL    HW1 2774   2.968   0.698   0.917
  694SOL    HW2 2775   3.004   0.670   1.061
  694SOL     MW 2776   2.977   0.726   0.999
  695SOL     OW 2777   0.211   2.561   1.825
  695SOL    HW1 2778   0.281   2.604   1.776
  695SOL    HW2 2779   0.138   2.556   1.763
  695SOL     MW 2780   0.210   2.566   1.811
  696SOL     OW 2781   2.781   2.748   0.705
  696SOL    HW1 2782   2.729   2.827   0.720
  696SOL    HW2 2783   2.763   2.692   0.780
  696SOL     MW 2784   2.772   2.751   0.716
  697SOL     OW 2785   0.722   3.160   1.509
  697SOL    HW1 2786   0.818   3.161   1.509
  697SOL    HW2 2787   0.698   3.218   1.437
  697SOL     MW 2788   0.732   3.168   1.500
  698SOL     OW 2789   0.890   2.020   0.750
  698SOL    HW1 2790   0.882   1.935   0.706
  698SOL    HW2 2791   0.977   2.018   0.790
  698SOL     MW 2792   0.900   2.009   0.749
  699SOL     OW 2793   2.278   2.786   1.003
  699SOL    HW1 2794   2.236   2.871   1.018
  699SOL    HW2 2795   2.206   2.725   0.991
  699SOL     MW 2796   2.264   2.789   1.003
  700SOL     OW 2797   0.668   0.405   0.978
  700SOL    HW1 2798   0.621   0.477   0.936
  700SOL    HW2 2799   0.726   0.371   0.909
  700SOL     MW 2800   0.670   0.410   0.964
  701SOL     OW 2801   0.258   0.509   2.791
  701SOL    HW1 2802   0.182   0.537   2.843
  701SOL    HW2 2803   0.283   0.425   2.830
  701SOL     MW 2804   0.251   0.502   2.803
  702SOL     OW 2805   1.752   2.609   0.079
  702SOL    HW1 2806   1.735   2.523   0.042
  702SOL    HW2 2807   1.823   2.645   0.027
  702SOL     MW 2808   1.759   2.603   0.068
  703SOL     OW 2809   2.070   0.030   0.038
  703SOL    HW1 2810   2.113   0.081  -0.030
  703SOL    HW2 2811   2.040  -0.049  -0.006
  703SOL     MW 2812   2.072   0.026   0.024
  704SOL     OW 2813   0.854   1.954   2.761
  704SOL    HW1 2814   0.776   1.993   2.802
  704SOL    HW2 2815   0.832   1.862   2.752
  704SOL     MW 2816   0.841   1.948   2.765
  705SOL     OW 2817   2.029   1.017   3.148
  705SOL    HW1 2818   1.971   1.085   3.182
  705SOL    HW2 2819   2.042   1.041   3.056
  705SOL     MW 2820   2.023   1.028   3.140
  706SOL     OW 2821   2.396   2.970   1.345
  706SOL    HW1 2822   2.407   2.875   1.344
  706SOL    HW2 2823   2.431   3.000   1.261
  706SOL     MW 2824   2.402   2.962   1.334
  707SOL     OW 2825   2.311   0.195   1.193
  707SOL    HW1 2826   2.272   0.111   1.215
  707SOL    HW2 2827   2.324   0.239   1.278
  707SOL     MW 2828   2.308   0.190   1.207
  708SOL     OW 2829   0.526   2.831   1.291
  708SOL    HW1 2830   0.598   2.858   1.233
  708SOL    HW2 2831   0.449   2.874   1.254
  708SOL     MW 2832   0.525   2.840   1.279
  709SOL     OW 2833   1.088   2.675   1.802
  709SOL    HW1 2834   1.086   2.719   1.717
  709SOL    HW2 2835   0.996   2.670   1.829
  709SOL     MW 2836   1.076   2.680   1.795
  710SOL     OW 2837   2.594   0.237   0.853
  710SOL    HW1 2838   2.588   0.202   0.941
  710SOL    HW2 2839   2.654   0.178   0.807
  710SOL     MW 2840   2.601   0.225   0.858
  711SOL     OW 2841   2.989   1.865   1.124
  711SOL    HW1 2842   2.968   1.806   1.052
  711SOL    HW2 2843   2.941   1.829   1.199
  711SOL     MW 2844   2.980   1.853   1.124
  712SOL     OW 2845   0.036   2.329   0.809
  712SOL    HW1 2846   0.097   2.376   0.752
  712SOL    HW2 2847   0.093   2.277   0.866
  712SOL     MW 2848   0.051   2.329   0.809
  713SOL     OW 2849   0.868   3.130   2.287
  713SOL    HW1 2850   0.824   3.060   2.335
  713SOL    HW2 2851   0.950   3.092   2.256
  713SOL     MW 2852   0.873   3.116   2.289
  714SOL     OW 2853   2.432   1.848   1.855
  714SOL    HW1 2854   2.521   1.857   1.820
  714SOL    HW2 2855   2.404   1.937   1.872
  714SOL     MW 2856   2.440   1.860   1.853
  715SOL     OW 2857   0.283   1.367   2.580
  715SOL    HW1 2858   0.349   1.369   2.510
  715SOL    HW2 2859   0.315   1.301   2.641
  715SOL     MW 2860   0.296   1.359   2.579
  716SOL     OW 2861   1.440   2.517   2.246
  716SOL    HW1 2862   1.413   2.474   2.165
  716SOL    HW2 2863   1.394   2.600   2.245
  716SOL     MW 2864   1.431   2.522   2.235
  717SOL     OW 2865   1.730   2.011   2.217
  717SOL    HW1 2866   1.742   2.091   2.268
  717SOL    HW2 2867   1.636   2.001   2.209
  717SOL     MW 2868   1.720   2.020   2.222
  718SOL     OW 2869   1.229   1.898   2.366
  718SOL    HW1 2870   1.212   1.848   2.446
  718SOL    HW2 2871   1.156   1.874   2.308
  718SOL     MW 2872   1.217   1.888   2.368
  719SOL     OW 2873   0.158   0.216   1.311
  719SOL    HW1 2874   0.198   0.140   1.269
  719SOL    HW2 2875   0.222   0.286   1.299
  719SOL     MW 2876   0.171   0.215   1.304
  720SOL     OW 2877   0.545   1.176   0.015
  720SOL    HW1 2878   0.528   1.254   0.068
  720SOL    HW2 2879   0.540   1.207  -0.075
  720SOL     MW 2880   0.542   1.190   0.010
  721SOL     OW 2881   2.943   1.529   0.371
  721SOL    HW1 2882   2.947   1.560   0.461
  721SOL    HW2 2883   2.983   1.599   0.320
  721SOL     MW 2884   2.949   1.542   0.376
  722SOL     OW 2885   2.933   0.208   3.082
  722SOL    HW1 2886   2.903   0.250   3.163
  722SOL    HW2 2887   2.977   0.128   3.110
  722SOL     MW 2888   2.935   0.203   3.096
  723SOL     OW 2889   2.642   2.441   2.986
  723SOL    HW1 2890   2.587   2.368   3.011
  723SOL    HW2 2891   2.613   2.514   3.041
  723SOL     MW 2892   2.631   2.441   2.996
  724SOL     OW 2893   0.622   2.325   2.884
  724SOL    HW1 2894   0.587   2.392   2.942
  724SOL    HW2 2895   0.714   2.351   2.870
  724SOL     MW 2896   0.630   2.337   2.889
  725SOL     OW 2897   0.516   0.625   0.847
  725SOL    HW1 2898   0.457   0.612   0.773
  725SOL    HW2 2899   0.458   0.642   0.921
  725SOL     MW 2900   0.501   0.625   0.847
  726SOL     OW 2901   2.392   0.512   0.595
  726SOL    HW1 2902   2.409   0.483   0.506
  726SOL    HW2 2903   2.470   0.563   0.619
  726SOL     MW 2904   2.405   0.515   0.587
  727SOL     OW 2905   2.491   0.584   1.292
  727SOL    HW1 2906   2.541   0.663   1.311
  727SOL    HW2 2907   2.420   0.585   1.356
  727SOL     MW 2908   2.488   0.594   1.303
  728SOL     OW 2909   2.585   3.109   2.027
  728SOL    HW1 2910   2.517   3.159   1.982
  728SOL    HW2 2911   2.544   3.081   2.109
  728SOL     MW 2912   2.571   3.112   2.032
  729SOL     OW 2913   2.678   1.802   0.818
  729SOL    HW1 2914   2.685   1.897   0.808
  729SOL    HW2 2915   2.760   1.777   0.862
  729SOL     MW 2916   2.690   1.811   0.822
  730SOL     OW 2917   2.021   0.093   0.540
  730SOL    HW1 2918   2.009   0.097   0.634
  730SOL    HW2 2919   1.959   0.157   0.505
  730SOL     MW 2920   2.011   0.102   0.547
  731SOL     OW 2921   0.414   2.692   1.661
  731SOL    HW1 2922   0.482   2.660   1.720
  731SOL    HW2 2923   0.449   2.773   1.625
  731SOL     MW 2924   0.427   2.698   1.664
  732SOL     OW 2925   3.090   1.992   2.871
  732SOL    HW1 2926   3.154   1.934   2.831
  732SOL    HW2 2927   3.141   2.047   2.931
  732SOL     MW 2928   3.105   1.992   2.874
  733SOL     OW 2929   1.835   2.227   2.994
  733SOL    HW1 2930   1.763   2.164   2.983
  733SOL    HW2 2931   1.802   2.291   3.057
  733SOL     MW 2932   1.821   2.227   3.000
  734SOL     OW 2933   1.983   3.188   2.553
  734SOL    HW1 2934   1.976   3.248   2.627
  734SOL    HW2 2935   1.900   3.141   2.552
  734SOL     MW 2936   1.971   3.190   2.562
  735SOL     OW 2937   3.105   2.368   2.907
  735SOL    HW1 2938   3.020   2.356   2.951
  735SOL    HW2 2939   3.143   2.445   2.949
  735SOL     MW 2940   3.099   2.376   2.918
  736SOL     OW 2941   3.057   1.333   1.761
  736SOL    HW1 2942   3.065   1.426   1.782
  736SOL    HW2 2943   2.999   1.298   1.829
  736SOL     MW 2944   3.051   1.341   1.773
  737SOL     OW 2945   1.248   2.191   1.010
  737SOL    HW1 2946   1.340   2.167   1.017
  737SOL    HW2 2947   1.206   2.114   0.972
  737SOL     MW 2948   1.254   2.178   1.006
  738SOL     OW 2949   0.213   1.825   1.732
  738SOL    HW1 2950   0.205   1.731   1.750
  738SOL    HW2 2951   0.172   1.836   1.646
  738SOL     MW 2952   0.207   1.814   1.723
  739SOL     OW 2953   2.033   1.125   1.963
  739SOL    HW1 2954   2.097   1.054   1.973
  739SOL    HW2 2955   1.960   1.099   2.020
  739SOL     MW 2956   2.032   1.112   1.972
  740SOL     OW 2957   2.197   3.152   1.254
  740SOL    HW1 2958   2.180   3.120   1.166
  740SOL    HW2 2959   2.251   3.084   1.295
  740SOL     MW 2960   2.202   3.140   1.248
  741SOL     OW 2961   2.776   1.819   0.484
  741SOL    HW1 2962   2.812   1.902   0.513
  741SOL    HW2 2963   2.736   1.838   0.399
  741SOL     MW 2964   2.775   1.832   0.477
  742SOL     OW 2965   0.926   1.165   1.037
  742SOL    HW1 2966   0.901   1.073   1.039
  742SOL    HW2 2967   0.926   1.192   1.129
  742SOL     MW 2968   0.923   1.157   1.049
  743SOL     OW 2969   2.684   0.467   2.303
  743SOL    HW1 2970   2.757   0.427   2.256
  743SOL    HW2 2971   2.628   0.504   2.235
  743SOL     MW 2972   2.686   0.466   2.289
  744SOL     OW 2973   0.640   2.732   2.925
  744SOL    HW1 2974   0.680   2.682   2.854
  744SOL    HW2 2975   0.593   2.666   2.976
  744SOL     MW 2976   0.639   2.717   2.922
  745SOL     OW 2977   3.138   2.419   2.417
  745SOL    HW1 2978   3.133   2.513   2.438
  745SOL    HW2 2979   3.219   2.411   2.367
  745SOL     MW 2980   3.148   2.430   2.413
  746SOL     OW 2981   1.930   2.871   2.722
  746SOL    HW1 2982   2.018   2.904   2.702
  746SOL    HW2 2983   1.873   2.920   2.663
  746SOL     MW 2984   1.934   2.882   2.712
  747SOL     OW 2985   0.943   0.911   2.002
  747SOL    HW1 2986   0.855   0.877   1.991
  747SOL    HW2 2987   0.931   1.006   2.012
  747SOL     MW 2988   0.930   0.919   2.002
  748SOL     OW 2989   2.564   0.296   2.795
  748SOL    HW1 2990   2.542   0.381   2.834
  748SOL    HW2 2991   2.553   0.309   2.701
  748SOL     MW 2992   2.560   0.309   2.788
  749SOL     OW 2993   1.361   1.591   2.177
  749SOL    HW1 2994   1.369   1.623   2.267
  749SOL    HW2 2995   1.329   1.667   2.128
  749SOL     MW 2996   1.358   1.605   2.182
  750SOL     OW 2997   1.132   0.747   1.886
  750SOL    HW1 2998   1.107   0.661   1.918
  750SOL    HW2 2999   1.075   0.808   1.933
  750SOL     MW 3000   1.121   0.744   1.896
  751SOL     OW 3001   0.529   3.005   2.129
  751SOL    HW1 3002   0.479   2.951   2.068
  751SOL    HW2 3003   0.479   3.086   2.136
  751SOL     MW 3004   0.516   3.009   2.122
  752SOL     OW 3005   0.917   0.310   0.300
  752SOL    HW1 3006   0.961   0.368   0.238
  752SOL    HW2 3007   0.829   0.347   0.308
  752SOL     MW 3008   0.911   0.322   0.293
  753SOL     OW 3009   3.157   1.295   2.836
  753SOL    HW1 3010   3.177   1.350   2.912
  753SOL    HW2 3011   3.152   1.357   2.763
  753SOL     MW 3012   3.159   1.310   2.836
  754SOL     OW 3013   0.274   0.806   3.035
  754SOL    HW1 3014   0.304   0.834   2.949
  754SOL    HW2 3015   0.303   0.876   3.094
  754SOL     MW 3016   0.281   0.819   3.032
  755SOL     OW 3017   2.073   2.260   0.534
  755SOL    HW1 3018   2.015   2.292   0.464
  755SOL    HW2 3019   2.016   2.250   0.610
  755SOL     MW 3020   2.058   2.263   0.534
  756SOL     OW 3021   2.337   2.346   0.924
  756SOL    HW1 3022   2.359   2.396   0.845
  756SOL    HW2 3023   2.287   2.271   0.891
  756SOL     MW 3024   2.333   2.343   0.909
  757SOL     OW 3025   1.824   1.869   2.429
  757SOL    HW1 3026   1.800   1.914   2.347
  757SOL    HW2 3027   1.884   1.930   2.472
  757SOL     MW 3028   1.828   1.883   2.424
  758SOL     OW 3029   2.540   2.227   2.165
  758SOL    HW1 3030   2.567   2.138   2.189
  758SOL    HW2 3031   2.444   2.223   2.161
  758SOL     MW 3032   2.531   2.215   2.168
  759SOL     OW 3033   2.535   2.667   1.035
  759SOL    HW1 3034   2.447   2.705   1.029
  759SOL    HW2 3035   2.525   2.596   1.099
  759SOL     MW 3036   2.522   2.662   1.042
  760SOL     OW 3037   2.527   0.608   2.114
  760SOL    HW1 3038   2.593   0.598   2.046
  760SOL    HW2 3039   2.447   0.628   2.066
  760SOL     MW 3040   2.525   0.609   2.099
  761SOL     OW 3041   1.238   0.687   0.874
  761SOL    HW1 3042   1.251   0.621   0.943
  761SOL    HW2 3043   1.314   0.676   0.817
  761SOL     MW 3044   1.249   0.677   0.876
  762SOL     OW 3045   0.218   0.545   3.126
  762SOL    HW1 3046   0.255   0.526   3.212
  762SOL    HW2 3047   0.256   0.629   3.101
  762SOL     MW 3048   0.227   0.553   3.134
  763SOL     OW 3049   2.422   1.293   1.796
  763SOL    HW1 3050   2.434   1.378   1.838
  763SOL    HW2 3051   2.510   1.268   1.768
  763SOL     MW 3052   2.435   1.300   1.798
  764SOL     OW 3053   2.801   2.485   1.888
  764SOL    HW1 3054   2.758   2.474   1.804
  764SOL    HW2 3055   2.805   2.580   1.901
  764SOL     MW 3056   2.796   2.496   1.879
  765SOL     OW 3057   0.015   0.394   1.911
  765SOL    HW1 3058   0.077   0.329   1.878
  765SOL    HW2 3059  -0.003   0.450   1.836
  765SOL     MW 3060   0.021   0.393   1.897
  766SOL     OW 3061   1.582   0.799   2.048
  766SOL    HW1 3062   1.642   0.826   1.978
  766SOL    HW2 3063   1.511   0.753   2.003
  766SOL     MW 3064   1.581   0.797   2.033
  767SOL     OW 3065   1.393   0.644   1.925
  767SOL    HW1 3066   1.306   0.681   1.912
  767SOL    HW2 3067   1.388   0.599   2.009
  767SOL     MW 3068   1.381   0.643   1.934
  768SOL     OW 3069   2.242   1.679   2.502
  768SOL    HW1 3070   2.167   1.704   2.447
  768SOL    HW2 3071   2.276   1.600   2.460
  768SOL     MW 3072   2.237   1.672   2.489
  769SOL     OW 3073   0.469   2.247   0.889
  769SOL    HW1 3074   0.382   2.218   0.919
  769SOL    HW2 3075   0.517   2.166   0.873
  769SOL     MW 3076   0.464   2.233   0.891
  770SOL     OW 3077   0.656   0.698   1.349
  770SOL    HW1 3078   0.627   0.772   1.296
  770SOL    HW2 3079   0.590   0.690   1.418
  770SOL     MW 3080   0.644   0.706   1.351
  771SOL     OW 3081   2.655   1.318   2.481
  771SOL    HW1 3082   2.658   1.352   2.392
  771SOL    HW2 3083   2.605   1.383   2.531
  771SOL     MW 3084   2.649   1.330   2.476
  772SOL     OW 3085   0.566   0.376   2.001
  772SOL    HW1 3086   0.540   0.461   2.037
  772SOL    HW2 3087   0.564   0.316   2.075
  772SOL     MW 3088   0.563   0.379   2.015
  773SOL     OW 3089   0.276   2.675   3.109
  773SOL    HW1 3090   0.266   2.758   3.061
  773SOL    HW2 3091   0.310   2.701   3.195
  773SOL     MW 3092   0.279   2.689   3.114
  774SOL     OW 3093   2.647   1.595   1.402
  774SOL    HW1 3094   2.584   1.609   1.332
  774SOL    HW2 3095   2.595   1.603   1.482
  774SOL     MW 3096   2.632   1.598   1.403
  775SOL     OW 3097   0.119   0.404   2.587
  775SOL    HW1 3098   0.163   0.445   2.662
  775SOL    HW2 3099   0.156   0.449   2.511
  775SOL     MW 3100   0.129   0.415   2.587
  776SOL     OW 3101   2.525   2.202   3.053
  776SOL    HW1 3102   2.583   2.132   3.023
  776SOL    HW2 3103   2.445   2.191   3.003
  776SOL     MW 3104   2.522   2.192   3.043
  777SOL     OW 3105   2.751   1.179   0.353
  777SOL    HW1 3106   2.793   1.197   0.437
  777SOL    HW2 3107   2.715   1.091   0.364
  777SOL     MW 3108   2.752   1.170   0.366
  778SOL     OW 3109   2.301   3.115   0.124
  778SOL    HW1 3110   2.349   3.167   0.188
  778SOL    HW2 3111   2.220   3.163   0.109
  778SOL     MW 3112   2.297   3.127   0.130
  779SOL     OW 3113   2.304   1.400   1.570
  779SOL    HW1 3114   2.303   1.332   1.503
  779SOL    HW2 3115   2.333   1.355   1.649
  779SOL     MW 3116   2.308   1.386   1.572
  780SOL     OW 3117   1.431   0.313   1.142
  780SOL    HW1 3118   1.492   0.327   1.215
  780SOL    HW2 3119   1.382   0.395   1.137
  780SOL     MW 3120   1.432   0.325   1.151
  781SOL     OW 3121   1.321   0.484   2.424
  781SOL    HW1 3122   1.315   0.568   2.470
  781SOL    HW2 3123   1.348   0.422   2.492
  781SOL     MW 3124   1.324   0.487   2.439
  782SOL     OW 3125   0.089   2.227   1.212
  782SOL    HW1 3126   0.137   2.171   1.272
  782SOL    HW2 3127  -0.002   2.196   1.218
  782SOL     MW 3128   0.083   2.216   1.220
  783SOL     OW 3129   1.544   1.969   2.725
  783SOL    HW1 3130   1.609   2.037   2.707
  783SOL    HW2 3131   1.521   1.934   2.639
  783SOL     MW 3132   1.550   1.973   2.711
  784SOL     OW 3133   0.908   1.032   0.376
  784SOL    HW1 3134   0.973   1.093   0.341
  784SOL    HW2 3135   0.836   1.034   0.313
  784SOL     MW 3136   0.907   1.040   0.364
  785SOL     OW 3137   0.357   1.694   0.581
  785SOL    HW1 3138   0.339   1.605   0.553
  785SOL    HW2 3139   0.293   1.711   0.650
  785SOL     MW 3140   0.347   1.685   0.586
  786SOL     OW 3141   1.860   1.587   3.057
  786SOL    HW1 3142   1.857   1.549   2.969
  786SOL    HW2 3143   1.946   1.562   3.091
  786SOL     MW 3144   1.871   1.579   3.050
  787SOL     OW 3145   0.828   0.656   3.188
  787SOL    HW1 3146   0.917   0.634   3.163
  787SOL    HW2 3147   0.774   0.587   3.149
  787SOL     MW 3148   0.832   0.644   3.180
  788SOL     OW 3149   1.414   0.534   2.174
  788SOL    HW1 3150   1.407   0.450   2.128
  788SOL    HW2 3151   1.398   0.513   2.266
  788SOL     MW 3152   1.411   0.521   2.180
  789SOL     OW 3153   2.368   1.927   2.491
  789SOL    HW1 3154   2.457   1.894   2.476
  789SOL    HW2 3155   2.316   1.849   2.506
  789SOL     MW 3156   2.373   1.913   2.491
  790SOL     OW 3157   2.174   2.523   3.085
  790SOL    HW1 3158   2.094   2.576   3.086
  790SOL    HW2 3159   2.142   2.433   3.091
  790SOL     MW 3160   2.159   2.518   3.086
  791SOL     OW 3161   1.131   2.404   1.796
  791SOL    HW1 3162   1.182   2.392   1.876
  791SOL    HW2 3163   1.116   2.498   1.791
  791SOL     MW 3164   1.135   2.414   1.806
  792SOL     OW 3165   0.407   0.038   2.213
  792SOL    HW1 3166   0.378   0.024   2.303
  792SOL    HW2 3167   0.342   0.098   2.176
  792SOL     MW 3168   0.395   0.044   2.219
  793SOL     OW 3169   2.298   1.055   1.750
  793SOL    HW1 3170   2.339   1.136   1.782
  793SOL    HW2 3171   2.282   1.003   1.829
  793SOL     MW 3172   2.301   1.059   1.765
  794SOL     OW 3173   1.399   1.375   1.998
  794SOL    HW1 3174   1.380   1.453   2.049
  794SOL    HW2 3175   1.432   1.408   1.914
  794SOL     MW 3176   1.401   1.389   1.994
  795SOL     OW 3177   1.910   1.082   1.476
  795SOL    HW1 3178   1.965   1.093   1.554
  795SOL    HW2 3179   1.954   1.013   1.426
  795SOL     MW 3180   1.923   1.074   1.480
  796SOL     OW 3181   1.629   1.128   0.832
  796SOL    HW1 3182   1.612   1.053   0.776
  796SOL    HW2 3183   1.611   1.204   0.777
  796SOL     MW 3184   1.624   1.128   0.818
  797SOL     OW 3185   1.945   2.557   2.608
  797SOL    HW1 3186   1.955   2.464   2.588
  797SOL    HW2 3187   1.905   2.559   2.694
  797SOL     MW 3188   1.941   2.545   2.616
  798SOL     OW 3189   1.626   0.264   2.516
  798SOL    HW1 3190   1.684   0.325   2.561
  798SOL    HW2 3191   1.540   0.278   2.556
  798SOL     MW 3192   1.622   0.273   2.527
  799SOL     OW 3193   2.989   2.456   1.179
  799SOL    HW1 3194   2.916   2.424   1.126
  799SOL    HW2 3195   2.948   2.484   1.261
  799SOL     MW 3196   2.974   2.455   1.183
  800SOL     OW 3197   1.343   0.549   0.179
  800SOL    HW1 3198   1.395   0.472   0.157
  800SOL    HW2 3199   1.357   0.562   0.273
  800SOL     MW 3200   1.351   0.541   0.188
  801SOL     OW 3201   2.887   2.920   2.963
  801SOL    HW1 3202   2.961   2.863   2.940
  801SOL    HW2 3203   2.858   2.888   3.049
  801SOL     MW 3204   2.893   2.909   2.971
  802SOL     OW 3205   0.728   1.695   2.736
  802SOL    HW1 3206   0.650   1.727   2.690
  802SOL    HW2 3207   0.778   1.650   2.668
  802SOL     MW 3208   0.725   1.693   2.721
  803SOL     OW 3209   1.523   0.449   1.772
  803SOL    HW1 3210   1.466   0.502   1.828
  803SOL    HW2 3211   1.611   0.485   1.785
  803SOL     MW 3212   1.527   0.460   1.781
  804SOL     OW 3213   2.232   1.454   2.926
  804SOL    HW1 3214   2.200   1.492   3.008
  804SOL    HW2 3215   2.258   1.530   2.873
  804SOL     MW 3216   2.231   1.469   2.929
  805SOL     OW 3217   0.911   1.486   1.142
  805SOL    HW1 3218   0.994   1.531   1.156
  805SOL    HW2 3219   0.844   1.553   1.153
  805SOL     MW 3220   0.913   1.500   1.145
  806SOL     OW 3221   0.570   2.427   2.631
  806SOL    HW1 3222   0.599   2.370   2.559
  806SOL    HW2 3223   0.580   2.374   2.709
  806SOL     MW 3224   0.575   2.413   2.632
  807SOL     OW 3225   1.730   2.404   1.224
  807SOL    HW1 3226   1.724   2.340   1.295
  807SOL    HW2 3227   1.731   2.351   1.145
  807SOL     MW 3228   1.729   2.389   1.223
  808SOL     OW 3229   2.935   2.078   0.946
  808SOL    HW1 3230   2.902   2.161   0.981
  808SOL    HW2 3231   2.953   2.025   1.024
  808SOL     MW 3232   2.933   2.082   0.961
  809SOL     OW 3233   1.600   1.905   1.773
  809SOL    HW1 3234   1.519   1.854   1.765
  809SOL    HW2 3235   1.665   1.855   1.724
  809SOL     MW 3236   1.598   1.892   1.766
  810SOL     OW 3237   2.805   1.188   1.291
  810SOL    HW1 3238   2.731   1.191   1.230
  810SOL    HW2 3239   2.882   1.200   1.235
  810SOL     MW 3240   2.805   1.190   1.276
  811SOL     OW 3241   0.235   1.306   1.850
  811SOL    HW1 3242   0.328   1.285   1.838
  811SOL    HW2 3243   0.222   1.301   1.944
  811SOL     MW 3244   0.245   1.303   1.860
  812SOL     OW 3245   2.662   1.213   1.690
  812SOL    HW1 3246   2.699   1.271   1.624
  812SOL    HW2 3247   2.734   1.153   1.712
  812SOL     MW 3248   2.676   1.213   1.685
  813SOL     OW 3249   3.204   2.529   1.010
  813SOL    HW1 3250   3.208   2.458   0.945
  813SOL    HW2 3251   3.129   2.506   1.065
  813SOL     MW 3252   3.195   2.517   1.009
  814SOL     OW 3253   1.253   2.926   0.468
  814SOL    HW1 3254   1.342   2.900   0.443
  814SOL    HW2 3255   1.228   2.992   0.403
  814SOL     MW 3256   1.261   2.931   0.457
  815SOL     OW 3257   0.690   0.841   0.824
  815SOL    HW1 3258   0.696   0.882   0.737
  815SOL    HW2 3259   0.629   0.769   0.812
  815SOL     MW 3260   0.683   0.837   0.811
  816SOL     OW 3261   1.759   0.970   2.844
  816SOL    HW1 3262   1.764   0.926   2.759
  816SOL    HW2 3263   1.843   1.015   2.853
  816SOL     MW 3264   1.770   0.970   2.834
  817SOL     OW 3265   1.257   2.342   0.785
  817SOL    HW1 3266   1.164   2.358   0.767
  817SOL    HW2 3267   1.257   2.294   0.868
  817SOL     MW 3268   1.245   2.338   0.793
  818SOL     OW 3269   0.500   0.544   2.668
  818SOL    HW1 3270   0.414   0.541   2.710
  818SOL    HW2 3271   0.537   0.457   2.685
  818SOL     MW 3272   0.493   0.532   2.675
  819SOL     OW 3273   0.566   2.928   0.250
  819SOL    HW1 3274   0.648   2.890   0.283
  819SOL    HW2 3275   0.528   2.971   0.327
  819SOL     MW 3276   0.572   2.929   0.264
  820SOL     OW 3277   1.620   0.242   1.335
  820SOL    HW1 3278   1.576   0.163   1.304
  820SOL    HW2 3279   1.697   0.249   1.278
  820SOL     MW 3280   1.624   0.233   1.324
  821SOL     OW 3281   1.478   1.063   2.067
  821SOL    HW1 3282   1.487   1.078   1.973
  821SOL    HW2 3283   1.514   0.975   2.081
  821SOL     MW 3284   1.484   1.054   2.057
  822SOL     OW 3285   2.050   2.208   0.150
  822SOL    HW1 3286   2.127   2.169   0.192
  822SOL    HW2 3287   2.025   2.279   0.209
  822SOL     MW 3288   2.057   2.212   0.163
  823SOL     OW 3289   2.873   2.138   2.769
  823SOL    HW1 3290   2.910   2.211   2.719
  823SOL    HW2 3291   2.948   2.082   2.789
  823SOL     MW 3292   2.888   2.141   2.766
  824SOL     OW 3293   2.332   0.905   0.348
  824SOL    HW1 3294   2.264   0.930   0.286
  824SOL    HW2 3295   2.298   0.828   0.392
  824SOL     MW 3296   2.319   0.898   0.345
  825SOL     OW 3297   0.482   2.009   1.284
  825SOL    HW1 3298   0.488   1.916   1.308
  825SOL    HW2 3299   0.397   2.037   1.317
  825SOL     MW 3300   0.472   2.000   1.291
  826SOL     OW 3301   2.811   2.526   0.555
  826SOL    HW1 3302   2.793   2.609   0.599
  826SOL    HW2 3303   2.778   2.538   0.466
  826SOL     MW 3304   2.804   2.538   0.549
  827SOL     OW 3305   2.176   1.932   1.173
  827SOL    HW1 3306   2.186   1.865   1.240
  827SOL    HW2 3307   2.093   1.910   1.130
  827SOL     MW 3308   2.167   1.920   1.176
  828SOL     OW 3309   0.809   2.862   0.356
  828SOL    HW1 3310   0.779   2.791   0.413
  828SOL    HW2 3311   0.871   2.820   0.296
  828SOL     MW 3312   0.813   2.847   0.356
  829SOL     OW 3313   2.438   2.747   2.742
  829SOL    HW1 3314   2.353   2.706   2.727
  829SOL    HW2 3315   2.500   2.675   2.744
  829SOL     MW 3316   2.435   2.733   2.741
  830SOL     OW 3317   2.307   2.959   1.869
  830SOL    HW1 3318   2.242   2.941   1.936
  830SOL    HW2 3319   2.384   2.909   1.896
  830SOL     MW 3320   2.309   2.950   1.881
  831SOL     OW 3321   1.664   0.143   0.175
  831SOL    HW1 3322   1.669   0.053   0.142
  831SOL    HW2 3323   1.752   0.178   0.161
  831SOL     MW 3324   1.676   0.136   0.169
  832SOL     OW 3325   1.385   1.735   1.754
  832SOL    HW1 3326   1.432   1.651   1.758
  832SOL    HW2 3327   1.356   1.751   1.844
  832SOL     MW 3328   1.388   1.726   1.766
  833SOL     OW 3329   1.023   0.310   2.713
  833SOL    HW1 3330   1.096   0.260   2.748
  833SOL    HW2 3331   1.021   0.391   2.765
  833SOL     MW 3332   1.032   0.314   2.724
  834SOL     OW 3333   0.462   1.750   3.102
  834SOL    HW1 3334   0.387   1.778   3.049
  834SOL    HW2 3335   0.502   1.679   3.052
  834SOL     MW 3336   0.458   1.745   3.089
  835SOL     OW 3337   2.438   0.999   1.368
  835SOL    HW1 3338   2.473   0.999   1.457
  835SOL    HW2 3339   2.366   0.937   1.370
  835SOL     MW 3340   2.434   0.991   1.379
  836SOL     OW 3341   1.595   2.539   1.586
  836SOL    HW1 3342   1.683   2.504   1.597
  836SOL    HW2 3343   1.595   2.575   1.497
  836SOL     MW 3344   1.606   2.539   1.576
  837SOL     OW 3345   2.736   1.333   0.105
  837SOL    HW1 3346   2.757   1.274   0.177
  837SOL    HW2 3347   2.817   1.341   0.055
  837SOL     MW 3348   2.749   1.326   0.108
  838SOL     OW 3349   0.722   2.663   0.513
  838SOL    HW1 3350   0.716   2.599   0.442
  838SOL    HW2 3351   0.808   2.648   0.552
  838SOL     MW 3352   0.732   2.653   0.509
  839SOL     OW 3353   2.952   0.357   1.674
  839SOL    HW1 3354   2.961   0.310   1.591
  839SOL    HW2 3355   3.029   0.413   1.678
  839SOL     MW 3356   2.963   0.358   1.664
  840SOL     OW 3357   2.947   0.725   1.508
  840SOL    HW1 3358   2.907   0.808   1.483
  840SOL    HW2 3359   2.956   0.677   1.425
  840SOL     MW 3360   2.943   0.729   1.494
  841SOL     OW 3361   1.291   0.724   2.553
  841SOL    HW1 3362   1.219   0.785   2.570
  841SOL    HW2 3363   1.361   0.779   2.518
  841SOL     MW 3364   1.291   0.739   2.550
  842SOL     OW 3365   0.705   1.671   1.158
  842SOL    HW1 3366   0.637   1.700   1.219
  842SOL    HW2 3367   0.665   1.677   1.072
  842SOL     MW 3368   0.691   1.676   1.155
  843SOL     OW 3369   1.787   1.505   0.603
  843SOL    HW1 3370   1.854   1.478   0.665
  843SOL    HW2 3371   1.708   1.459   0.632
  843SOL     MW 3372   1.785   1.496   0.614
  844SOL     OW 3373   2.583   0.869   0.822
  844SOL    HW1 3374   2.650   0.928   0.787
  844SOL    HW2 3375   2.504   0.892   0.773
  844SOL     MW 3376   2.581   0.880   0.811
  845SOL     OW 3377   0.607   2.373   1.095
  845SOL    HW1 3378   0.557   2.332   1.025
  845SOL    HW2 3379   0.562   2.456   1.111
  845SOL     MW 3380   0.595   2.379   1.088
  846SOL     OW 3381   2.214   1.245   2.559
  846SOL    HW1 3382   2.164   1.293   2.626
  846SOL    HW2 3383   2.246   1.313   2.500
  846SOL     MW 3384   2.211   1.260   2.560
  847SOL     OW 3385   1.409   1.634   2.444
  847SOL    HW1 3386   1.457   1.553   2.462
  847SOL    HW2 3387   1.473   1.704   2.459
  847SOL     MW 3388   1.423   1.633   2.448
  848SOL     OW 3389   2.079   2.746   2.268
  848SOL    HW1 3390   2.095   2.806   2.196
  848SOL    HW2 3391   2.144   2.771   2.334
  848SOL     MW 3392   2.090   2.757   2.267
  849SOL     OW 3393   1.093   1.454   2.517
  849SOL    HW1 3394   1.124   1.543   2.532
  849SOL    HW2 3395   1.117   1.435   2.426
  849SOL     MW 3396   1.100   1.463   2.507
  850SOL     OW 3397   1.925   3.003   0.880
  850SOL    HW1 3398   1.981   2.960   0.815
  850SOL    HW2 3399   1.918   2.939   0.951
  850SOL     MW 3400   1.931   2.989   0.880
  851SOL     OW 3401   3.012   1.011   0.934
  851SOL    HW1 3402   3.009   0.925   0.976
  851SOL    HW2 3403   3.014   1.073   1.008
  851SOL     MW 3404   3.012   1.008   0.949
  852SOL     OW 3405   3.194   2.631   1.661
  852SOL    HW1 3406   3.173   2.650   1.570
  852SOL    HW2 3407   3.228   2.714   1.695
  852SOL     MW 3408   3.196   2.644   1.654
  853SOL     OW 3409   2.848   1.009   1.719
  853SOL    HW1 3410   2.824   0.983   1.630
  853SOL    HW2 3411   2.823   0.935   1.773
  853SOL     MW 3412   2.842   0.996   1.714
  854SOL     OW 3413   1.386   0.482   1.540
  854SOL    HW1 3414   1.347   0.395   1.533
  854SOL    HW2 3415   1.434   0.481   1.623
  854SOL     MW 3416   1.387   0.471   1.550
  855SOL     OW 3417   3.010   1.095   2.167
  855SOL    HW1 3418   2.987   1.177   2.211
  855SOL    HW2 3419   2.934   1.039   2.180
  855SOL     MW 3420   2.998   1.098   2.174
  856SOL     OW 3421   2.921   1.696   0.912
  856SOL    HW1 3422   2.956   1.614   0.948
  856SOL    HW2 3423   2.939   1.690   0.818
  856SOL     MW 3424   2.928   1.685   0.905
  857SOL     OW 3425   0.416   2.809   1.971
  857SOL    HW1 3426   0.351   2.827   1.903
  857SOL    HW2 3427   0.478   2.749   1.931
  857SOL     MW 3428   0.416   2.804   1.957
  858SOL     OW 3429   1.011   1.424   0.413
  858SOL    HW1 3430   0.996   1.471   0.332
  858SOL    HW2 3431   1.095   1.456   0.444
  858SOL     MW 3432   1.020   1.434   0.407
  859SOL     OW 3433   2.641   1.180   2.051
  859SOL    HW1 3434   2.663   1.250   2.113
  859SOL    HW2 3435   2.709   1.185   1.984
  859SOL     MW 3436   2.652   1.190   2.051
  860SOL     OW 3437   0.714   0.084   1.755
  860SOL    HW1 3438   0.707   0.043   1.669
  860SOL    HW2 3439   0.632   0.133   1.765
  860SOL     MW 3440   0.703   0.085   1.745
  861SOL     OW 3441   2.163   1.345   2.065
  861SOL    HW1 3442   2.112   1.277   2.021
  861SOL    HW2 3443   2.166   1.417   2.003
  861SOL     MW 3444   2.157   1.345   2.051
  862SOL     OW 3445   2.549   0.322   2.510
  862SOL    HW1 3446   2.607   0.371   2.452
  862SOL    HW2 3447   2.491   0.274   2.450
  862SOL     MW 3448   2.549   0.322   2.495
  863SOL     OW 3449   3.012   0.462   1.066
  863SOL    HW1 3450   2.922   0.435   1.081
  863SOL    HW2 3451   3.017   0.477   0.971
  863SOL     MW 3452   3.001   0.460   1.056
  864SOL     OW 3453   2.891   0.706   2.633
  864SOL    HW1 3454   2.810   0.690   2.584
  864SOL    HW2 3455   2.952   0.639   2.602
  864SOL     MW 3456   2.888   0.695   2.623
  865SOL     OW 3457   0.564   1.443   0.436
  865SOL    HW1 3458   0.646   1.489   0.452
  865SOL    HW2 3459   0.559   1.436   0.341
  865SOL     MW 3460   0.574   1.448   0.426
  866SOL     OW 3461   2.957   0.229   1.435
  866SOL    HW1 3462   2.876   0.187   1.405
  866SOL    HW2 3463   3.013   0.231   1.357
  866SOL     MW 3464   2.954   0.224   1.421
  867SOL     OW 3465   1.290   0.787   2.221
  867SOL    HW1 3466   1.197   0.761   2.224
  867SOL    HW2 3467   1.336   0.705   2.201
  867SOL     MW 3468   1.284   0.773   2.219
  868SOL     OW 3469   0.658   0.115   2.291
  868SOL    HW1 3470   0.724   0.049   2.269
  868SOL    HW2 3471   0.577   0.080   2.254
  868SOL     MW 3472   0.656   0.102   2.283
  869SOL     OW 3473   0.067   1.812   2.747
  869SOL    HW1 3474  -0.014   1.765   2.724
  869SOL    HW2 3475   0.081   1.873   2.674
  869SOL     MW 3476   0.058   1.814   2.735
  870SOL     OW 3477   1.296   1.663   0.728
  870SOL    HW1 3478   1.289   1.607   0.650
  870SOL    HW2 3479   1.292   1.603   0.802
  870SOL     MW 3480   1.295   1.648   0.727
  871SOL     OW 3481   1.103   0.662   1.282
  871SOL    HW1 3482   1.020   0.623   1.311
  871SOL    HW2 3483   1.148   0.686   1.363
  871SOL     MW 3484   1.098   0.660   1.296
  872SOL     OW 3485   2.057   1.326   2.768
  872SOL    HW1 3486   1.975   1.376   2.773
  872SOL    HW2 3487   2.116   1.370   2.829
  872SOL     MW 3488   2.054   1.338   2.776
  873SOL     OW 3489   2.490   2.405   2.532
  873SOL    HW1 3490   2.454   2.321   2.564
  873SOL    HW2 3491   2.563   2.380   2.476
  873SOL     MW 3492   2.495   2.391   2.529
  874SOL     OW 3493   3.055   2.956   1.641
  874SOL    HW1 3494   2.994   3.025   1.669
  874SOL    HW2 3495   3.080   2.981   1.552
  874SOL     MW 3496   3.050   2.968   1.633
  875SOL     OW 3497   1.574   1.207   1.093
  875SOL    HW1 3498   1.582   1.164   1.007
  875SOL    HW2 3499   1.662   1.201   1.130
  875SOL     MW 3500   1.587   1.201   1.087
  876SOL     OW 3501   0.037   2.848   2.647
  876SOL    HW1 3502   0.124   2.880   2.623
  876SOL    HW2 3503  -0.021   2.921   2.626
  876SOL     MW 3504   0.041   2.861   2.641
  877SOL     OW 3505   3.111   1.072   1.675
  877SOL    HW1 3506   3.105   1.167   1.685
  877SOL    HW2 3507   3.021   1.041   1.687
  877SOL     MW 3508   3.098   1.080   1.678
  878SOL     OW 3509   0.474   1.386   0.178
  878SOL    HW1 3510   0.403   1.331   0.211
  878SOL    HW2 3511   0.430   1.462   0.141
  878SOL     MW 3512   0.459   1.388   0.178
  879SOL     OW 3513   2.956   2.815   1.216
  879SOL    HW1 3514   2.995   2.887   1.264
  879SOL    HW2 3515   2.984   2.828   1.125
  879SOL     MW 3516   2.964   2.826   1.210
  880SOL     OW 3517   0.585   1.557   2.961
  880SOL    HW1 3518   0.555   1.467   2.947
  880SOL    HW2 3519   0.634   1.578   2.882
  880SOL     MW 3520   0.587   1.549   2.949
  881SOL     OW 3521   2.869   3.120   0.879
  881SOL    HW1 3522   2.836   3.189   0.821
  881SOL    HW2 3523   2.880   3.162   0.964
  881SOL     MW 3524   2.867   3.134   0.882
  882SOL     OW 3525   2.794   0.578   0.083
  882SOL    HW1 3526   2.743   0.613   0.010
  882SOL    HW2 3527   2.731   0.575   0.156
  882SOL     MW 3528   2.779   0.583   0.083
  883SOL     OW 3529   1.156   1.142   1.709
  883SOL    HW1 3530   1.198   1.215   1.664
  883SOL    HW2 3531   1.166   1.162   1.802
  883SOL     MW 3532   1.163   1.154   1.715
  884SOL     OW 3533   0.322   1.010   0.013
  884SOL    HW1 3534   0.405   1.056   0.026
  884SOL    HW2 3535   0.299   0.977   0.100
  884SOL     MW 3536   0.330   1.012   0.026
  885SOL     OW 3537   1.512   2.105   0.983
  885SOL    HW1 3538   1.545   2.059   1.060
  885SOL    HW2 3539   1.488   2.035   0.922
  885SOL     MW 3540   1.513   2.090   0.985
  886SOL     OW 3541   1.971   2.758   1.893
  886SOL    HW1 3542   2.053   2.709   1.896
  886SOL    HW2 3543   1.903   2.690   1.901
  886SOL     MW 3544   1.973   2.743   1.894
  887SOL     OW 3545   1.920   2.027   2.015
  887SOL    HW1 3546   1.850   2.019   2.080
  887SOL    HW2 3547   1.908   2.115   1.978
  887SOL     MW 3548   1.909   2.037   2.019
  888SOL     OW 3549   2.857   3.112   1.747
  888SOL    HW1 3550   2.835   3.204   1.762
  888SOL    HW2 3551   2.881   3.079   1.834
  888SOL     MW 3552   2.857   3.120   1.760
  889SOL     OW 3553   2.421   2.994   0.867
  889SOL    HW1 3554   2.380   2.909   0.880
  889SOL    HW2 3555   2.450   3.021   0.955
  889SOL     MW 3556   2.419   2.987   0.880
  890SOL     OW 3557   1.716   0.659   2.259
  890SOL    HW1 3558   1.648   0.677   2.194
  890SOL    HW2 3559   1.739   0.567   2.243
  890SOL     MW 3560   1.710   0.649   2.249
  891SOL     OW 3561   3.017   1.614   2.999
  891SOL    HW1 3562   3.109   1.600   3.021
  891SOL    HW2 3563   2.970   1.541   3.041
  891SOL     MW 3564   3.022   1.603   3.007
  892SOL     OW 3565   1.555   2.653   1.846
  892SOL    HW1 3566   1.541   2.628   1.755
  892SOL    HW2 3567   1.467   2.671   1.880
  892SOL     MW 3568   1.542   2.652   1.838
  893SOL     OW 3569   0.288   0.917   2.273
  893SOL    HW1 3570   0.262   0.843   2.218
  893SOL    HW2 3571   0.212   0.975   2.272
  893SOL     MW 3572   0.275   0.915   2.266
  894SOL     OW 3573   1.357   0.866   0.385
  894SOL    HW1 3574   1.366   0.936   0.320
  894SOL    HW2 3575   1.264   0.869   0.409
  894SOL     MW 3576   1.346   0.875   0.379
  895SOL     OW 3577   1.162   1.117   0.889
  895SOL    HW1 3578   1.206   1.072   0.961
  895SOL    HW2 3579   1.080   1.149   0.928
  895SOL     MW 3580   1.157   1.115   0.903
  896SOL     OW 3581   2.658   0.069   0.456
  896SOL    HW1 3582   2.722  -0.001   0.447
  896SOL    HW2 3583   2.708   0.150   0.443
  896SOL     MW 3584   2.672   0.070   0.454
  897SOL     OW 3585   1.919   1.875   1.472
  897SOL    HW1 3586   1.927   1.813   1.399
  897SOL    HW2 3587   2.008   1.907   1.486
  897SOL     MW 3588   1.932   1.871   1.464
  898SOL     OW 3589   2.565   1.767   2.980
  898SOL    HW1 3590   2.618   1.846   2.970
  898SOL    HW2 3591   2.615   1.699   2.935
  898SOL     MW 3592   2.578   1.769   2.973
  899SOL     OW 3593   0.362   0.391   1.286
  899SOL    HW1 3594   0.420   0.338   1.232
  899SOL    HW2 3595   0.405   0.394   1.371
  899SOL     MW 3596   0.375   0.384   1.290
  900SOL     OW 3597   3.191   2.228   1.816
  900SOL    HW1 3598   3.138   2.305   1.834
  900SOL    HW2 3599   3.248   2.254   1.743
  900SOL     MW 3600   3.192   2.241   1.809
  901SOL     OW 3601   0.969   2.236   1.654
  901SOL    HW1 3602   0.962   2.161   1.713
  901SOL    HW2 3603   1.024   2.298   1.701
  901SOL     MW 3604   0.975   2.234   1.667
  902SOL     OW 3605   1.676   2.901   2.329
  902SOL    HW1 3606   1.589   2.876   2.359
  902SOL    HW2 3607   1.730   2.824   2.345
  902SOL     MW 3608   1.672   2.888   2.335
  903SOL     OW 3609   2.773   2.669   2.453
  903SOL    HW1 3610   2.811   2.635   2.535
  903SOL    HW2 3611   2.806   2.611   2.385
  903SOL     MW 3612   2.782   2.657   2.455
  904SOL     OW 3613   0.234   0.547   2.390
  904SOL    HW1 3614   0.330   0.545   2.379
  904SOL    HW2 3615   0.200   0.526   2.303
  904SOL     MW 3616   0.242   0.544   2.378
  905SOL     OW 3617   2.692   2.324   2.371
  905SOL    HW1 3618   2.701   2.245   2.425
  905SOL    HW2 3619   2.639   2.297   2.297
  905SOL     MW 3620   2.686   2.310   2.368
  906SOL     OW 3621   2.745   2.844   2.738
  906SOL    HW1 3622   2.792   2.762   2.719
  906SOL    HW2 3623   2.783   2.874   2.821
  906SOL     MW 3624   2.756   2.837   2.746
  907SOL     OW 3625   1.615   2.627   1.320
  907SOL    HW1 3626   1.657   2.547   1.290
  907SOL    HW2 3627   1.687   2.688   1.335
  907SOL     MW 3628   1.629   2.624   1.318
  908SOL     OW 3629   2.284   1.219   1.367
  908SOL    HW1 3630   2.205   1.190   1.321
  908SOL    HW2 3631   2.340   1.142   1.370
  908SOL     MW 3632   2.281   1.205   1.362
  909SOL     OW 3633   1.400   2.345   1.615
  909SOL    HW1 3634   1.335   2.361   1.546
  909SOL    HW2 3635   1.468   2.411   1.600
  909SOL     MW 3636   1.400   2.355   1.604
  910SOL     OW 3637   1.620   1.960   1.191
  910SOL    HW1 3638   1.704   1.998   1.218
  910SOL    HW2 3639   1.587   1.916   1.270
  910SOL     MW 3640   1.626   1.959   1.205
  911SOL     OW 3641   2.533   1.317   3.128
  911SOL    HW1 3642   2.608   1.319   3.188
  911SOL    HW2 3643   2.465   1.270   3.177
  911SOL     MW 3644   2.534   1.311   3.142
  912SOL     OW 3645   0.470   0.975   2.075
  912SOL    HW1 3646   0.412   0.957   2.002
  912SOL    HW2 3647   0.419   0.954   2.153
  912SOL     MW 3648   0.456   0.970   2.076
  913SOL     OW 3649   1.179   2.413   0.140
  913SOL    HW1 3650   1.120   2.467   0.088
  913SOL    HW2 3651   1.125   2.383   0.214
  913SOL     MW 3652   1.165   2.416   0.143
  914SOL     OW 3653   2.657   2.080   0.761
  914SOL    HW1 3654   2.621   2.114   0.843
  914SOL    HW2 3655   2.580   2.069   0.704
  914SOL     MW 3656   2.642   2.083   0.764
  915SOL     OW 3657   1.349   2.582   1.230
  915SOL    HW1 3658   1.283   2.640   1.268
  915SOL    HW2 3659   1.431   2.609   1.270
  915SOL     MW 3660   1.351   2.593   1.240
  916SOL     OW 3661   2.778   0.102   0.701
  916SOL    HW1 3662   2.722   0.082   0.626
  916SOL    HW2 3663   2.860   0.134   0.662
  916SOL     MW 3664   2.782   0.103   0.686
  917SOL     OW 3665   2.007   2.033   2.549
  917SOL    HW1 3666   2.026   2.124   2.527
  917SOL    HW2 3667   1.998   2.032   2.644
  917SOL     MW 3668   2.008   2.044   2.558
  918SOL     OW 3669   0.423   1.168   2.720
  918SOL    HW1 3670   0.489   1.157   2.651
  918SOL    HW2 3671   0.386   1.081   2.732
  918SOL     MW 3672   0.427   1.156   2.712
  919SOL     OW 3673   2.464   1.712   0.962
  919SOL    HW1 3674   2.395   1.775   0.941
  919SOL    HW2 3675   2.542   1.746   0.918
  919SOL     MW 3676   2.465   1.724   0.953
  920SOL     OW 3677   2.896   1.184   1.931
  920SOL    HW1 3678   2.947   1.149   2.004
  920SOL    HW2 3679   2.894   1.112   1.868
  920SOL     MW 3680   2.902   1.170   1.933
  921SOL     OW 3681   1.431   1.618   3.165
  921SOL    HW1 3682   1.367   1.547   3.161
  921SOL    HW2 3683   1.515   1.574   3.176
  921SOL     MW 3684   1.433   1.603   3.166
  922SOL     OW 3685   1.106   0.840   1.068
  922SOL    HW1 3686   1.105   0.786   1.147
  922SOL    HW2 3687   1.153   0.786   1.004
  922SOL     MW 3688   1.112   0.826   1.070
  923SOL     OW 3689   2.083   1.135   1.200
  923SOL    HW1 3690   1.994   1.169   1.189
  923SOL    HW2 3691   2.123   1.144   1.113
  923SOL     MW 3692   2.077   1.141   1.187
  924SOL     OW 3693   0.486   0.240   1.775
  924SOL    HW1 3694   0.480   0.296   1.698
  924SOL    HW2 3695   0.510   0.299   1.846
  924SOL     MW 3696   0.488   0.254   1.774
  925SOL     OW 3697   2.565   0.825   2.283
  925SOL    HW1 3698   2.549   0.757   2.216
  925SOL    HW2 3699   2.488   0.882   2.277
  925SOL     MW 3700   2.553   0.823   2.273
  926SOL     OW 3701   1.746   2.853   0.512
  926SOL    HW1 3702   1.729   2.916   0.582
  926SOL    HW2 3703   1.758   2.770   0.558
  926SOL     MW 3704   1.745   2.851   0.527
  927SOL     OW 3705   3.150   1.822   0.652
  927SOL    HW1 3706   3.140   1.912   0.684
  927SOL    HW2 3707   3.179   1.832   0.561
  927SOL     MW 3708   3.152   1.835   0.644
  928SOL     OW 3709   2.166   2.876   0.186
  928SOL    HW1 3710   2.223   2.954   0.180
  928SOL    HW2 3711   2.220   2.805   0.152
  928SOL     MW 3712   2.180   2.877   0.181
  929SOL     OW 3713   0.972   0.787   1.660
  929SOL    HW1 3714   1.028   0.753   1.591
  929SOL    HW2 3715   1.020   0.769   1.741
  929SOL     MW 3716   0.986   0.780   1.662
  930SOL     OW 3717   1.389   0.309   2.025
  930SOL    HW1 3718   1.478   0.273   2.018
  930SOL    HW2 3719   1.341   0.243   2.076
  930SOL     MW 3720   1.395   0.296   2.031
  931SOL     OW 3721   3.137   0.884   0.074
  931SOL    HW1 3722   3.104   0.801   0.108
  931SOL    HW2 3723   3.154   0.867  -0.018
  931SOL     MW 3724   3.135   0.871   0.067
  932SOL     OW 3725   0.868   1.261   1.291
  932SOL    HW1 3726   0.879   1.347   1.249
  932SOL    HW2 3727   0.885   1.278   1.383
  932SOL     MW 3728   0.872   1.274   1.297
  933SOL     OW 3729   2.445   2.693   1.368
  933SOL    HW1 3730   2.484   2.622   1.318
  933SOL    HW2 3731   2.511   2.716   1.434
  933SOL     MW 3732   2.458   2.687   1.370
  934SOL     OW 3733   0.527   0.632   0.260
  934SOL    HW1 3734   0.608   0.679   0.238
  934SOL    HW2 3735   0.484   0.689   0.325
  934SOL     MW 3736   0.532   0.645   0.266
  935SOL     OW 3737   1.002   2.166   2.652
  935SOL    HW1 3738   0.951   2.086   2.664
  935SOL    HW2 3739   1.011   2.174   2.557
  935SOL     MW 3740   0.996   2.157   2.641
  936SOL     OW 3741   0.970   2.637   0.609
  936SOL    HW1 3742   1.021   2.706   0.651
  936SOL    HW2 3743   1.013   2.623   0.525
  936SOL     MW 3744   0.982   2.644   0.604
  937SOL     OW 3745   1.292   2.393   2.908
  937SOL    HW1 3746   1.360   2.363   2.968
  937SOL    HW2 3747   1.280   2.320   2.847
  937SOL     MW 3748   1.299   2.380   2.908
  938SOL     OW 3749   2.904   1.216   0.579
  938SOL    HW1 3750   2.882   1.280   0.647
  938SOL    HW2 3751   2.997   1.228   0.562
  938SOL     MW 3752   2.913   1.225   0.586
  939SOL     OW 3753   0.504   1.259   1.856
  939SOL    HW1 3754   0.509   1.256   1.952
  939SOL    HW2 3755   0.555   1.184   1.827
  939SOL     MW 3756   0.511   1.249   1.865
  940SOL     OW 3757   0.803   2.763   1.570
  940SOL    HW1 3758   0.777   2.679   1.532
  940SOL    HW2 3759   0.723   2.816   1.568
  940SOL     MW 3760   0.790   2.759   1.565
  941SOL     OW 3761   0.240   2.081   1.389
  941SOL    HW1 3762   0.188   2.016   1.437
  941SOL    HW2 3763   0.279   2.135   1.457
  941SOL     MW 3764   0.239   2.079   1.404
  942SOL     OW 3765   3.103   0.232   1.202
  942SOL    HW1 3766   3.193   0.233   1.235
  942SOL    HW2 3767   3.094   0.315   1.155
  942SOL     MW 3768   3.113   0.243   1.200
  943SOL     OW 3769   0.511   0.561   2.397
  943SOL    HW1 3770   0.577   0.493   2.378
  943SOL    HW2 3771   0.501   0.558   2.492
  943SOL     MW 3772   0.518   0.552   2.406
  944SOL     OW 3773   0.533   2.376   1.998
  944SOL    HW1 3774   0.439   2.376   2.016
  944SOL    HW2 3775   0.571   2.430   2.066
  944SOL     MW 3776   0.526   2.383   2.009
  945SOL     OW 3777   1.191   1.195   1.973
  945SOL    HW1 3778   1.268   1.252   1.980
  945SOL    HW2 3779   1.201   1.133   2.045
  945SOL     MW 3780   1.202   1.194   1.983
  946SOL     OW 3781   2.230   1.943   2.252
  946SOL    HW1 3782   2.288   1.947   2.328
  946SOL    HW2 3783   2.157   1.887   2.280
  946SOL     MW 3784   2.228   1.936   2.266
  947SOL     OW 3785   0.794   3.150   1.089
  947SOL    HW1 3786   0.888   3.142   1.070
  947SOL    HW2 3787   0.763   3.060   1.095
  947SOL     MW 3788   0.802   3.138   1.088
  948SOL     OW 3789   0.811   1.771   0.146
  948SOL    HW1 3790   0.816   1.835   0.217
  948SOL    HW2 3791   0.773   1.818   0.072
  948SOL     MW 3792   0.807   1.785   0.146
  949SOL     OW 3793   2.856   0.988   2.654
  949SOL    HW1 3794   2.878   0.896   2.639
  949SOL    HW2 3795   2.766   0.996   2.620
  949SOL     MW 3796   2.847   0.977   2.647
  950SOL     OW 3797   0.211   2.461   0.642
  950SOL    HW1 3798   0.160   2.480   0.563
  950SOL    HW2 3799   0.253   2.544   0.664
  950SOL     MW 3800   0.210   2.474   0.634
  951SOL     OW 3801   1.585   0.372   2.851
  951SOL    HW1 3802   1.548   0.442   2.905
  951SOL    HW2 3803   1.519   0.357   2.783
  951SOL     MW 3804   1.572   0.379   2.849
  952SOL     OW 3805   1.759   0.457   2.659
  952SOL    HW1 3806   1.709   0.432   2.736
  952SOL    HW2 3807   1.704   0.521   2.614
  952SOL     MW 3808   1.746   0.462   2.663
  953SOL     OW 3809   2.502   0.139   3.022
  953SOL    HW1 3810   2.519   0.205   2.956
  953SOL    HW2 3811   2.523   0.056   2.979
  953SOL     MW 3812   2.507   0.137   3.008
  954SOL     OW 3813   1.150   1.975   0.865
  954SOL    HW1 3814   1.108   1.889   0.867
  954SOL    HW2 3815   1.236   1.959   0.825
  954SOL     MW 3816   1.156   1.962   0.860
  955SOL     OW 3817   0.199   0.148   2.648
  955SOL    HW1 3818   0.174   0.234   2.612
  955SOL    HW2 3819   0.257   0.110   2.582
  955SOL     MW 3820   0.203   0.155   2.635
  956SOL     OW 3821   1.870   1.215   0.034
  956SOL    HW1 3822   1.794   1.204  -0.024
  956SOL    HW2 3823   1.838   1.270   0.105
  956SOL     MW 3824   1.856   1.221   0.036
  957SOL     OW 3825   3.074   2.521   0.630
  957SOL    HW1 3826   2.982   2.511   0.605
  957SOL    HW2 3827   3.087   2.456   0.699
  957SOL     MW 3828   3.064   2.511   0.636
  958SOL     OW 3829   2.185   1.575   1.915
  958SOL    HW1 3830   2.121   1.545   1.850
  958SOL    HW2 3831   2.154   1.663   1.939
  958SOL     MW 3832   2.172   1.583   1.909
  959SOL     OW 3833   2.436   2.070   1.193
  959SOL    HW1 3834   2.362   2.010   1.182
  959SOL    HW2 3835   2.505   2.017   1.231
  959SOL     MW 3836   2.435   2.056   1.196
  960SOL     OW 3837   1.846   2.072   1.305
  960SOL    HW1 3838   1.869   2.001   1.365
  960SOL    HW2 3839   1.930   2.115   1.286
  960SOL     MW 3840   1.860   2.069   1.310
  961SOL     OW 3841   1.436   2.242   2.557
  961SOL    HW1 3842   1.487   2.172   2.517
  961SOL    HW2 3843   1.501   2.302   2.595
  961SOL     MW 3844   1.451   2.241   2.557
  962SOL     OW 3845   3.070   2.594   2.089
  962SOL    HW1 3846   3.063   2.537   2.012
  962SOL    HW2 3847   2.999   2.565   2.146
  962SOL     MW 3848   3.060   2.583   2.087
  963SOL     OW 3849   0.781   1.170   2.124
  963SOL    HW1 3850   0.774   1.093   2.180
  963SOL    HW2 3851   0.694   1.209   2.125
  963SOL     MW 3852   0.769   1.165   2.131
  964SOL     OW 3853   3.038   1.449   0.975
  964SOL    HW1 3854   3.128   1.460   0.944
  964SOL    HW2 3855   2.989   1.422   0.897
  964SOL     MW 3856   3.043   1.447   0.961
  965SOL     OW 3857   1.530   1.197   1.552
  965SOL    HW1 3858   1.567   1.133   1.492
  965SOL    HW2 3859   1.534   1.155   1.638
  965SOL     MW 3860   1.535   1.184   1.556
  966SOL     OW 3861   2.024   2.852   0.433
  966SOL    HW1 3862   1.933   2.879   0.430
  966SOL    HW2 3863   2.059   2.876   0.347
  966SOL     MW 3864   2.017   2.859   0.422
  967SOL     OW 3865   1.418   0.543   2.995
  967SOL    HW1 3866   1.368   0.563   2.916
  967SOL    HW2 3867   1.393   0.611   3.058
  967SOL     MW 3868   1.409   0.554   2.993
  968SOL     OW 3869   1.872   0.387   1.988
  968SOL    HW1 3870   1.877   0.408   2.081
  968SOL    HW2 3871   1.801   0.323   1.981
  968SOL     MW 3872   1.864   0.382   1.999
  969SOL     OW 3873   1.392   2.922   2.426
  969SOL    HW1 3874   1.399   2.997   2.367
  969SOL    HW2 3875   1.311   2.938   2.475
  969SOL     MW 3876   1.382   2.934   2.425
  970SOL     OW 3877   0.083   2.863   1.769
  970SOL    HW1 3878   0.005   2.911   1.742
  970SOL    HW2 3879   0.067   2.842   1.862
  970SOL     MW 3880   0.071   2.866   1.778
  971SOL     OW 3881   2.856   2.205   0.070
  971SOL    HW1 3882   2.866   2.230  -0.022
  971SOL    HW2 3883   2.765   2.226   0.091
  971SOL     MW 3884   2.846   2.211   0.061
  972SOL     OW 3885   1.662   2.001   0.351
  972SOL    HW1 3886   1.685   1.914   0.318
  972SOL    HW2 3887   1.709   2.061   0.294
  972SOL     MW 3888   1.671   1.997   0.339
  973SOL     OW 3889   0.846   0.909   1.045
  973SOL    HW1 3890   0.809   0.875   0.964
  973SOL    HW2 3891   0.935   0.874   1.049
  973SOL     MW 3892   0.852   0.900   1.035
  974SOL     OW 3893   2.128   0.418   0.452
  974SOL    HW1 3894   2.039   0.388   0.436
  974SOL    HW2 3895   2.177   0.338   0.472
  974SOL     MW 3896   2.123   0.404   0.452
  975SOL     OW 3897   0.838   2.648   1.904
  975SOL    HW1 3898   0.811   2.728   1.950
  975SOL    HW2 3899   0.861   2.587   1.974
  975SOL     MW 3900   0.837   2.651   1.919
  976SOL     OW 3901   2.121   1.840   2.004
  976SOL    HW1 3902   2.041   1.892   2.008
  976SOL    HW2 3903   2.168   1.862   2.085
  976SOL     MW 3904   2.117   1.850   2.015
  977SOL     OW 3905   2.618   1.312   0.839
  977SOL    HW1 3906   2.543   1.371   0.833
  977SOL    HW2 3907   2.598   1.240   0.779
  977SOL     MW 3908   2.606   1.310   0.831
  978SOL     OW 3909   0.297   1.444   0.478
  978SOL    HW1 3910   0.275   1.396   0.558
  978SOL    HW2 3911   0.392   1.435   0.470
  978SOL     MW 3912   0.306   1.437   0.487
  979SOL     OW 3913   0.078   1.096   2.259
  979SOL    HW1 3914  -0.010   1.082   2.222
  979SOL    HW2 3915   0.065   1.163   2.326
  979SOL     MW 3916   0.065   1.102   2.263
  980SOL     OW 3917   0.262   2.367   2.027
  980SOL    HW1 3918   0.233   2.420   1.953
  980SOL    HW2 3919   0.209   2.287   2.022
  980SOL     MW 3920   0.252   2.364   2.017
  981SOL     OW 3921   2.002   2.310   2.490
  981SOL    HW1 3922   2.049   2.362   2.425
  981SOL    HW2 3923   1.924   2.280   2.443
  981SOL     MW 3924   1.998   2.313   2.475
  982SOL     OW 3925   0.205   2.181   0.967
  982SOL    HW1 3926   0.171   2.205   1.053
  982SOL    HW2 3927   0.193   2.086   0.962
  982SOL     MW 3928   0.199   2.172   0.977
  983SOL     OW 3929   1.702   1.193   0.418
  983SOL    HW1 3930   1.766   1.122   0.422
  983SOL    HW2 3931   1.622   1.156   0.455
  983SOL     MW 3932   1.700   1.179   0.424
  984SOL     OW 3933   1.720   1.738   1.591
  984SOL    HW1 3934   1.798   1.782   1.558
  984SOL    HW2 3935   1.652   1.757   1.526
  984SOL     MW 3936   1.721   1.746   1.579
  985SOL     OW 3937   0.186   1.652   2.093
  985SOL    HW1 3938   0.190   1.617   2.004
  985SOL    HW2 3939   0.278   1.662   2.119
  985SOL     MW 3940   0.199   1.649   2.085
  986SOL     OW 3941   1.982   0.468   1.067
  986SOL    HW1 3942   2.043   0.411   1.021
  986SOL    HW2 3943   2.019   0.556   1.057
  986SOL     MW 3944   1.995   0.472   1.059
  987SOL     OW 3945   0.282   1.643   2.633
  987SOL    HW1 3946   0.270   1.548   2.627
  987SOL    HW2 3947   0.203   1.673   2.678
  987SOL     MW 3948   0.270   1.634   2.638
  988SOL     OW 3949   1.291   0.904   1.710
  988SOL    HW1 3950   1.241   0.985   1.699
  988SOL    HW2 3951   1.241   0.854   1.775
  988SOL     MW 3952   1.278   0.908   1.717
  989SOL     OW 3953   2.969   0.550   0.798
  989SOL    HW1 3954   2.891   0.497   0.780
  989SOL    HW2 3955   2.999   0.577   0.712
  989SOL     MW 3956   2.962   0.546   0.785
  990SOL     OW 3957   2.220   1.739   1.362
  990SOL    HW1 3958   2.251   1.769   1.448
  990SOL    HW2 3959   2.299   1.710   1.317
  990SOL     MW 3960   2.234   1.739   1.368
  991SOL     OW 3961   1.533   2.768   0.129
  991SOL    HW1 3962   1.464   2.722   0.083
  991SOL    HW2 3963   1.613   2.720   0.106
  991SOL     MW 3964   1.535   2.756   0.120
  992SOL     OW 3965   0.908   0.714   0.710
  992SOL    HW1 3966   0.830   0.747   0.756
  992SOL    HW2 3967   0.972   0.785   0.719
  992SOL     MW 3968   0.906   0.728   0.717
  993SOL     OW 3969   1.068   2.816   1.567
  993SOL    HW1 3970   0.973   2.800   1.566
  993SOL    HW2 3971   1.078   2.898   1.615
  993SOL     MW 3972   1.057   2.824   1.573
  994SOL     OW 3973   1.320   2.736   0.998
  994SOL    HW1 3974   1.336   2.673   1.068
  994SOL    HW2 3975   1.323   2.684   0.917
  994SOL     MW 3976   1.322   2.721   0.996
  995SOL     OW 3977   2.765   0.959   2.151
  995SOL    HW1 3978   2.715   1.033   2.117
  995SOL    HW2 3979   2.703   0.913   2.208
  995SOL     MW 3980   2.750   0.962   2.154
  996SOL     OW 3981   2.431   1.819   0.448
  996SOL    HW1 3982   2.494   1.826   0.376
  996SOL    HW2 3983   2.472   1.758   0.510
  996SOL     MW 3984   2.444   1.812   0.446
  997SOL     OW 3985   0.164   0.340   1.577
  997SOL    HW1 3986   0.169   0.280   1.651
  997SOL    HW2 3987   0.150   0.284   1.501
  997SOL     MW 3988   0.163   0.325   1.577
  998SOL     OW 3989   1.459   1.408   0.360
  998SOL    HW1 3990   1.470   1.492   0.315
  998SOL    HW2 3991   1.547   1.381   0.385
  998SOL     MW 3992   1.471   1.415   0.357
  999SOL     OW 3993   0.104   1.886   1.981
  999SOL    HW1 3994   0.141   1.876   1.894
  999SOL    HW2 3995   0.137   1.811   2.030
  999SOL     MW 3996   0.113   1.875   1.976
 1000SOL     OW 3997   2.657   0.673   3.063
 1000SOL    HW1 3998   2.732   0.688   3.006
 1000SOL    HW2 3999   2.608   0.756   3.061
 1000SOL     MW 4000   2.661   0.686   3.055
   3.20000   3.20000   3.20000
