Generic title
 4000
    1SOL     OW    1   2.382   2.137   3.077 -0.0872  0.0148  0.1842
    1SOL    HW1    2   2.382   2.229   3.104  1.0373  0.3617 -0.9477
    1SOL    HW2    3   2.290   2.110   3.087 -0.3725  1.1470  0.8558
    1SOL     MW    4   2.370   2.146   3.082  0.0013  0.0003 -0.0018
    2SOL     OW    5   0.375   2.513   0.580  0.1530  0.7363  0.1523
    2SOL    HW1    6   0.294   2.522   0.631  0.8453  2.3651  1.0442
    2SOL    HW2    7   0.361   2.571   0.504 -0.1773 -0.3260 -0.6207
    2SOL     MW    8   0.363   2.522   0.577  0.0013  0.0003 -0.0018
    3SOL     OW    9   0.720   1.044   2.895 -0.3644 -0.2613  0.0799
    3SOL    HW1   10   0.785   1.041   2.965  0.4057 -0.9098 -0.6338
    3SOL    HW2   11   0.719   0.954   2.861 -1.2443 -0.1195 -0.2729
    3SOL     MW   12   0.728   1.032   2.900  0.0013  0.0003 -0.0018
    4SOL     OW   13   0.131   2.833   1.198  0.4488  0.0575 -0.0070
    4SOL    HW1   14   0.054   2.855   1.147  0.3266 -0.7346 -0.1891
    4SOL    HW2   15   0.105   2.847   1.289  0.5871  1.2388 -0.1455
    4SOL     MW   16   0.118   2.837   1.203  0.0013  0.0003 -0.0018
    5SOL     OW   17   2.594   0.989   2.473  0.5441  0.0421  0.2729
    5SOL    HW1   18   2.545   0.928   2.418  0.1300 -0.9857  1.7284
    5SOL    HW2   19   2.623   1.058   2.413  0.6893 -1.3730 -1.3597
    5SOL     MW   20   2.592   0.990   2.458  0.0013  0.0003 -0.0018
    6SOL     OW   21   1.146   0.689   0.224 -0.4830  0.2604 -0.3832
    6SOL    HW1   22   1.054   0.668   0.242 -1.1620  2.4654 -0.9222
    6SOL    HW2   23   1.178   0.615   0.173 -1.9973 -0.4960 -0.3003
    6SOL     MW   24   1.138   0.677   0.220  0.0013  0.0003 -0.0018
    7SOL     OW   25   2.284   0.880   0.870 -0.5752 -0.4026 -0.3987
    7SOL    HW1   26   2.362   0.824   0.865 -0.4679 -0.5451  1.7896
    7SOL    HW2   27   2.308   0.949   0.932 -1.4177  0.9365 -1.5010
    7SOL     MW   28   2.297   0.881   0.877  0.0013  0.0003 -0.0018
    8SOL     OW   29   0.198   1.578   0.154  0.0812 -0.2087 -0.1922
    8SOL    HW1   30   0.182   1.533   0.236  0.6468  2.1205  1.2779
    8SOL    HW2   31   0.283   1.622   0.166 -1.0395  2.3607 -0.9315
    8SOL     MW   32   0.207   1.578   0.166  0.0013  0.0003 -0.0018
    9SOL     OW   33   2.072   2.028   0.868  0.2441 -0.5069  0.9666
    9SOL    HW1   34   2.029   2.073   0.795 -2.0915 -1.0018  1.9502
    9SOL    HW2   35   2.164   2.020   0.841  0.2322  2.4466 -0.3854
    9SOL     MW   36   2.078   2.033   0.856  0.0013  0.0003 -0.0018
   10SOL     OW   37   0.620   0.555   1.130  0.6351 -0.0008 -0.0174
   10SOL    HW1   38   0.560   0.599   1.190  0.9125 -1.1780  1.1755
   10SOL    HW2   39   0.706   0.587   1.156  0.7628 -0.5805  0.2959
   10SOL     MW   40   0.623   0.565   1.141  0.0013  0.0003 -0.0018
   11SOL     OW   41   2.526   1.695   2.148  0.0906  0.1250 -0.0721
   11SOL    HW1   42   2.580   1.732   2.217  1.3499  1.3035 -1.6249
   11SOL    HW2   43   2.588   1.665   2.082 -1.1047  1.2851 -1.8013
   11SOL     MW   44   2.541   1.696   2.148  0.0013  0.0003 -0.0018
   12SOL     OW   45   3.024   1.491   1.921  0.0650  0.2360  0.0953
   12SOL    HW1   46   2.962   1.418   1.929  1.5307 -1.1419 -0.6429
   12SOL    HW2   47   3.023   1.532   2.007  0.0298 -1.3652  0.9048
   12SOL     MW   48   3.016   1.487   1.933  0.0013  0.0003 -0.0018
   13SOL     OW   49   2.339   2.880   2.831  0.2368 -0.4555 -0.4938
   13SOL    HW1   50   2.307   2.970   2.830  0.2101 -0.4603 -0.0456
   13SOL    HW2   51   2.268   2.828   2.794  0.2805 -0.2841 -0.8187
   13SOL     MW   52   2.326   2.885   2.826  0.0013  0.0003 -0.0018
   14SOL     OW   53   0.735   2.902   1.702  0.2261 -0.2149  0.6201
   14SOL    HW1   54   0.717   2.975   1.761 -0.8968  0.0635 -0.0234
   14SOL    HW2   55   0.648   2.871   1.675  0.6553  0.4064 -1.7577
   14SOL     MW   56   0.722   2.908   1.706  0.0013  0.0003 -0.0018
   15SOL     OW   57   0.386   1.878   0.774  0.2623  0.0716 -0.0280
   15SOL    HW1   58   0.379   1.802   0.832 -3.0750  0.5430  0.3681
   15SOL    HW2   59   0.368   1.843   0.686  0.7007  0.0987 -0.1299
   15SOL     MW   60   0.383   1.864   0.770  0.0013  0.0003 -0.0018
   16SOL     OW   61   1.084   1.479   2.185 -0.1517 -0.0392  0.4077
   16SOL    HW1   62   1.037   1.534   2.247 -0.2468  0.3472 -0.0041
   16SOL    HW2   63   1.018   1.452   2.121 -0.0294 -0.3306  0.4021
   16SOL     MW   64   1.070   1.482   2.185  0.0013  0.0003 -0.0018
   17SOL     OW   65   2.987   1.182   1.728 -0.0610 -0.5105  0.4700
   17SOL    HW1   66   2.974   1.140   1.813 -0.1551 -1.3833  0.0367
   17SOL    HW2   67   2.904   1.172   1.682  0.7829 -2.5875 -0.7837
   17SOL     MW   68   2.975   1.175   1.733  0.0013  0.0003 -0.0018
   18SOL     OW   69   0.895   0.862   0.334 -0.5876 -0.1619 -0.3103
   18SOL    HW1   70   0.897   0.954   0.309 -1.0921 -0.4021 -1.2882
   18SOL    HW2   71   0.861   0.817   0.257 -1.0078 -1.0876  0.3978
   18SOL     MW   72   0.891   0.868   0.321  0.0013  0.0003 -0.0018
   19SOL     OW   73   0.876   0.437   0.479 -0.0022 -0.5218  0.1728
   19SOL    HW1   74   0.891   0.515   0.531 -2.0595 -0.4306  0.7186
   19SOL    HW2   75   0.945   0.438   0.413  1.3373  0.5414  1.5215
   19SOL     MW   76   0.887   0.447   0.478  0.0013  0.0003 -0.0018
   20SOL     OW   77   0.568   1.715   1.740  1.4178  0.2302 -0.2847
   20SOL    HW1   78   0.488   1.749   1.699  1.0166 -1.8446 -1.3650
   20SOL    HW2   79   0.538   1.680   1.824  1.0799 -0.8518 -0.8330
   20SOL     MW   80   0.554   1.715   1.745  0.0013  0.0003 -0.0018
   21SOL     OW   81   0.209   1.167   1.360 -0.5135  0.9555 -0.7794
   21SOL    HW1   82   0.159   1.245   1.385  0.3513  0.5916  2.5144
   21SOL    HW2   83   0.300   1.197   1.359 -0.2827  0.2596 -0.7648
   21SOL     MW   84   0.214   1.181   1.363  0.0013  0.0003 -0.0018
   22SOL     OW   85   0.919   0.921   1.238 -0.0286 -0.0802  0.4078
   22SOL    HW1   86   0.924   1.010   1.202 -0.3147  0.6909  2.1482
   22SOL    HW2   87   0.981   0.870   1.187  1.1156  1.4385  0.2269
   22SOL     MW   88   0.927   0.926   1.227  0.0013  0.0003 -0.0018
   23SOL     OW   89   0.755   0.361   2.473  0.3326  0.3160 -0.5847
   23SOL    HW1   90   0.673   0.333   2.432 -0.4350  0.7445  0.6175
   23SOL    HW2   91   0.750   0.457   2.474 -0.3018  0.3189  1.6672
   23SOL     MW   92   0.744   0.370   2.468  0.0013  0.0003 -0.0018
   24SOL     OW   93   2.926   2.138   0.738  0.1637  0.1766  0.0297
   24SOL    HW1   94   2.944   2.188   0.658 -1.2726 -0.4264 -0.7104
   24SOL    HW2   95   3.006   2.147   0.791  1.6207 -0.3887 -1.9624
   24SOL     MW   96   2.939   2.146   0.735  0.0013  0.0003 -0.0018
   25SOL     OW   97   1.457   2.082   1.352 -0.1790 -0.0944  0.7036
   25SOL    HW1   98   1.434   2.109   1.263  1.2494  0.4443  0.4743
   25SOL    HW2   99   1.534   2.026   1.341 -0.0710 -0.1263  1.5822
   25SOL     MW  100   1.464   2.078   1.339  0.0013  0.0003 -0.0018
   26SOL     OW  101   2.526   1.588   1.222  0.0666  0.0420 -0.1996
   26SOL    HW1  102   2.488   1.641   1.153  0.1564  0.9929  0.4637
   26SOL    HW2  103   2.621   1.593   1.206  0.2404  1.8499  1.0570
   26SOL     MW  104   2.534   1.595   1.211  0.0013  0.0003 -0.0018
   27SOL     OW  105   0.324   2.539   1.901  0.2315 -0.3156  0.1928
   27SOL    HW1  106   0.407   2.581   1.924  0.3318 -0.1176 -0.5073
   27SOL    HW2  107   0.346   2.446   1.894  0.9584 -0.0329 -2.2917
   27SOL     MW  108   0.338   2.532   1.903  0.0013  0.0003 -0.0018
   28SOL     OW  109   0.510   3.035   1.418 -0.3724 -0.1325 -0.1837
   28SOL    HW1  110   0.591   2.988   1.397  0.0598  0.3248  0.3868
   28SOL    HW2  111   0.539   3.125   1.434 -0.7947 -0.2322  1.3103
   28SOL     MW  112   0.524   3.041   1.418  0.0013  0.0003 -0.0018
   29SOL     OW  113   3.005   0.690   2.309  0.3806 -0.3787  0.2498
   29SOL    HW1  114   2.927   0.669   2.361 -0.7556  1.6719 -0.5007
   29SOL    HW2  115   3.078   0.660   2.363 -0.8687 -1.7722  1.2756
   29SOL     MW  116   3.004   0.683   2.322  0.0013  0.0003 -0.0018
   30SOL     OW  117   1.100   1.802   2.493  0.3554 -0.4986  0.3517
   30SOL    HW1  118   1.025   1.774   2.440  0.3380  0.3454 -0.0818
   30SOL    HW2  119   1.164   1.833   2.429  0.8645 -0.7086  0.7523
   30SOL     MW  120   1.099   1.802   2.478  0.0013  0.0003 -0.0018
   31SOL     OW  121   2.951   0.036   1.996  0.5234  0.4221  0.3201
   31SOL    HW1  122   2.984  -0.028   1.933 -0.0133  0.2142  0.2440
   31SOL    HW2  123   2.984   0.007   2.081 -3.0397 -2.4393  0.9848
   31SOL     MW  124   2.959   0.024   1.999  0.0013  0.0003 -0.0018
   32SOL     OW  125   1.317   1.491   2.423  0.0840 -0.4790  0.0131
   32SOL    HW1  126   1.232   1.529   2.446  0.8245  2.8876 -2.1718
   32SOL    HW2  127   1.374   1.513   2.497 -0.4894 -1.3035  0.7301
   32SOL     MW  128   1.313   1.499   2.436  0.0013  0.0003 -0.0018
   33SOL     OW  129   2.728   0.655   2.366 -0.1105  0.0569  0.2923
   33SOL    HW1  130   2.718   0.600   2.288  0.3084 -0.1129  0.3572
   33SOL    HW2  131   2.692   0.603   2.437 -1.1272  0.4826  0.1127
   33SOL     MW  132   2.722   0.641   2.365  0.0013  0.0003 -0.0018
   34SOL     OW  133   0.997   1.995   0.730 -0.0430 -0.1223 -0.1256
   34SOL    HW1  134   1.072   1.936   0.723 -1.9054 -3.1762  2.7414
   34SOL    HW2  135   0.945   1.976   0.651 -0.6706 -2.6289  0.7908
   34SOL     MW  136   1.000   1.985   0.719  0.0013  0.0003 -0.0018
   35SOL     OW  137   0.090   1.603   1.315 -0.0429  0.4429 -0.4065
   35SOL    HW1  138   0.171   1.618   1.364  0.4808  1.4020 -1.5117
   35SOL    HW2  139   0.117   1.605   1.223 -1.3104  0.7334 -0.7944
   35SOL     MW  140   0.104   1.605   1.309  0.0013  0.0003 -0.0018
   36SOL     OW  141   0.525   1.648   1.174  0.2410  0.1269 -0.2281
   36SOL    HW1  142   0.478   1.639   1.257 -2.0339  1.8567 -1.2150
   36SOL    HW2  143   0.525   1.742   1.156  1.8022 -0.0864 -1.5814
   36SOL     MW  144   0.519   1.659   1.182  0.0013  0.0003 -0.0018
   37SOL     OW  145   0.866   0.619   1.215 -0.4436  0.5855  0.1894
   37SOL    HW1  146   0.943   0.665   1.181 -0.7746  0.1030 -1.2925
   37SOL    HW2  147   0.886   0.604   1.308  0.9302  1.1074  0.0037
   37SOL     MW  148   0.879   0.623   1.223  0.0013  0.0003 -0.0018
   38SOL     OW  149   1.702   2.032   1.831  0.1267 -0.0829  0.1460
   38SOL    HW1  150   1.729   2.003   1.743  0.8216  2.4418 -0.5433
   38SOL    HW2  151   1.609   2.010   1.835  0.1004 -0.3437 -1.1883
   38SOL     MW  152   1.694   2.025   1.820  0.0013  0.0003 -0.0018
   39SOL     OW  153   1.370   2.664   2.556  0.1828 -0.1256 -0.4318
   39SOL    HW1  154   1.420   2.743   2.579  0.2953  0.2900 -1.9852
   39SOL    HW2  155   1.279   2.688   2.575  0.2195  0.3723 -0.8635
   39SOL     MW  156   1.365   2.677   2.562  0.0013  0.0003 -0.0018
   40SOL     OW  157   1.362   0.102   1.268 -0.2513 -0.1720  0.5830
   40SOL    HW1  158   1.293   0.150   1.313 -0.7281 -0.5675  0.2893
   40SOL    HW2  159   1.319   0.062   1.193  0.1789 -0.8585  0.6828
   40SOL     MW  160   1.348   0.103   1.264  0.0013  0.0003 -0.0018
   41SOL     OW  161   0.136   2.526   0.688  0.0108 -0.0721 -0.3408
   41SOL    HW1  162   0.077   2.495   0.757  0.4742  0.3988  0.2816
   41SOL    HW2  163   0.089   2.510   0.606 -0.0234 -1.8310 -0.0043
   41SOL     MW  164   0.123   2.520   0.686  0.0013  0.0003 -0.0018
   42SOL     OW  165   1.091   2.743   2.551 -0.5545 -0.2796 -0.4833
   42SOL    HW1  166   1.106   2.779   2.463  1.6296  0.5249  0.1600
   42SOL    HW2  167   1.082   2.821   2.607 -3.5489 -0.7410 -0.1357
   42SOL     MW  168   1.092   2.758   2.547  0.0013  0.0003 -0.0018
   43SOL     OW  169   0.412   2.434   3.071 -0.5592 -0.0529 -0.0426
   43SOL    HW1  170   0.504   2.450   3.051  0.2926 -1.6341  2.1482
   43SOL    HW2  171   0.402   2.462   3.162 -1.8147 -1.3427  0.2583
   43SOL     MW  172   0.423   2.439   3.080  0.0013  0.0003 -0.0018
   44SOL     OW  173   2.892   2.480   2.269  0.1371  0.0862 -0.5970
   44SOL    HW1  174   2.957   2.410   2.283  1.1383  1.0826 -0.1079
   44SOL    HW2  175   2.855   2.495   2.356 -0.1771  0.0778 -0.7289
   44SOL     MW  176   2.896   2.473   2.282  0.0013  0.0003 -0.0018
   45SOL     OW  177   2.123   0.663   0.690 -0.1342 -0.3538  0.0142
   45SOL    HW1  178   2.081   0.591   0.737 -0.4713 -2.2369 -2.9167
   45SOL    HW2  179   2.050   0.718   0.661 -0.0510 -0.1309  0.2188
   45SOL     MW  180   2.108   0.661   0.692  0.0013  0.0003 -0.0018
   46SOL     OW  181   0.956   2.959   0.797 -0.2105  0.9971 -0.0878
   46SOL    HW1  182   0.977   3.051   0.782 -0.3332  1.1184  0.4536
   46SOL    HW2  183   0.983   2.943   0.888  0.7501  0.2351 -0.4820
   46SOL     MW  184   0.962   2.969   0.807  0.0013  0.0003 -0.0018
   47SOL     OW  185   1.476   1.992   0.857 -0.4444  0.5075 -0.9483
   47SOL    HW1  186   1.564   2.013   0.825 -0.8064  2.9532 -0.5568
   47SOL    HW2  187   1.481   2.006   0.952 -1.2230  0.5664 -0.9096
   47SOL     MW  188   1.488   1.997   0.865  0.0013  0.0003 -0.0018
   48SOL     OW  189   0.168   0.240   0.801 -0.3426 -0.2106 -0.1146
   48SOL    HW1  190   0.215   0.320   0.778  1.7720 -1.0927  0.8616
   48SOL    HW2  191   0.143   0.201   0.717 -1.5383  1.4753 -0.6043
   48SOL     MW  192   0.171   0.245   0.787  0.0013  0.0003 -0.0018
   49SOL     OW  193   2.816   2.742   1.617  0.1687 -0.0032  0.1587
   49SOL    HW1  194   2.851   2.727   1.705 -2.2733  1.0875  1.4471
   49SOL    HW2  195   2.823   2.837   1.605 -2.5452  0.3663  0.7163
   49SOL     MW  196   2.821   2.753   1.627  0.0013  0.0003 -0.0018
   50SOL     OW  197   2.887   0.911   0.964 -0.0376 -0.4323  0.3956
   50SOL    HW1  198   2.978   0.938   0.962  0.6955 -2.6800  0.5036
   50SOL    HW2  199   2.856   0.924   0.874  0.6724 -0.5022  0.1339
   50SOL     MW  200   2.894   0.916   0.952  0.0013  0.0003 -0.0018
   51SOL     OW  201   1.509   1.532   2.641 -0.3503  0.0762 -0.2135
   51SOL    HW1  202   1.514   1.627   2.633 -1.2320  0.1853  0.3592
   51SOL    HW2  203   1.517   1.515   2.734  1.8988 -0.5897 -0.4758
   51SOL     MW  204   1.511   1.542   2.652  0.0013  0.0003 -0.0018
   52SOL     OW  205   0.261   2.302   0.452  0.1502  0.0213  0.0304
   52SOL    HW1  206   0.179   2.347   0.432 -0.0770  0.2162  1.3380
   52SOL    HW2  207   0.309   2.362   0.508  0.9094 -0.3734 -0.1761
   52SOL     MW  208   0.257   2.315   0.456  0.0013  0.0003 -0.0018
   53SOL     OW  209   1.584   0.468   3.022 -0.7194 -0.3474 -0.0388
   53SOL    HW1  210   1.507   0.483   2.967 -0.8325 -0.3993  0.1023
   53SOL    HW2  211   1.640   0.410   2.971  0.2244  1.3843 -1.0599
   53SOL     MW  212   1.581   0.463   3.009  0.0013  0.0003 -0.0018
   54SOL     OW  213   0.660   1.270   0.459 -0.0151  0.2961 -0.2888
   54SOL    HW1  214   0.666   1.284   0.554 -0.9986  0.5218 -0.2498
   54SOL    HW2  215   0.740   1.310   0.424 -0.3468  1.5406  0.3111
   54SOL     MW  216   0.671   1.277   0.467  0.0013  0.0003 -0.0018
   55SOL     OW  217   2.192   0.621   2.086  0.7322  0.0022  0.0103
   55SOL    HW1  218   2.191   0.526   2.089 -0.2883 -0.1195 -2.1270
   55SOL    HW2  219   2.249   0.642   2.011  1.2007  1.1027  0.6452
   55SOL     MW  220   2.200   0.612   2.076  0.0013  0.0003 -0.0018
   56SOL     OW  221   1.849   2.417   2.738 -0.3398 -0.1890  0.0839
   56SOL    HW1  222   1.835   2.478   2.666 -1.1064 -1.0416 -0.5102
   56SOL    HW2  223   1.761   2.399   2.772  0.0835  1.1072  2.0281
   56SOL     MW  224   1.836   2.422   2.734  0.0013  0.0003 -0.0018
   57SOL     OW  225   1.035   0.432   2.608 -0.9338  0.0367  0.1836
   57SOL    HW1  226   1.001   0.344   2.592  0.4282 -0.8806  1.9800
   57SOL    HW2  227   1.100   0.446   2.540 -1.7763  0.0381 -0.6362
   57SOL     MW  228   1.039   0.423   2.597  0.0013  0.0003 -0.0018
   58SOL     OW  229   1.063   1.335   0.385  0.4173 -0.3843  0.2259
   58SOL    HW1  230   1.007   1.374   0.318 -1.1473 -1.8494  0.6033
   58SOL    HW2  231   1.130   1.287   0.337  2.2571  2.4259 -0.2519
   58SOL     MW  232   1.064   1.334   0.371  0.0013  0.0003 -0.0018
   59SOL     OW  233   1.796   1.114   1.124  0.2797 -0.4498  0.2520
   59SOL    HW1  234   1.784   1.135   1.216  0.1418  2.8736 -0.3718
   59SOL    HW2  235   1.891   1.101   1.114  0.2618 -1.0790  0.8846
   59SOL     MW  236   1.807   1.115   1.134  0.0013  0.0003 -0.0018
   60SOL     OW  237   2.268   0.124   0.609 -0.2231  0.4214  0.3722
   60SOL    HW1  238   2.254   0.150   0.518  1.8133 -0.1838 -0.1635
   60SOL    HW2  239   2.354   0.159   0.632  0.3749 -1.4510  1.2550
   60SOL     MW  240   2.277   0.132   0.600  0.0013  0.0003 -0.0018
   61SOL     OW  241   1.590   0.041   2.980  0.0051 -0.2899 -0.0478
   61SOL    HW1  242   1.622  -0.050   2.979 -2.0410 -1.0839  0.6168
   61SOL    HW2  243   1.504   0.036   2.939  0.3954  1.6131 -1.1695
   61SOL     MW  244   1.583   0.029   2.975  0.0013  0.0003 -0.0018
   62SOL     OW  245   1.013   2.107   2.532  0.3101 -0.0981 -0.0622
   62SOL    HW1  246   1.018   2.201   2.545  2.6145 -0.2061  0.2477
   62SOL    HW2  247   1.104   2.080   2.516 -0.0523 -2.4759  1.4265
   62SOL     MW  248   1.026   2.115   2.531  0.0013  0.0003 -0.0018
   63SOL     OW  249   2.940   1.169   2.402 -0.3192 -0.4143 -0.0421
   63SOL    HW1  250   2.960   1.085   2.443  1.2199  0.7359  1.7256
   63SOL    HW2  251   2.993   1.171   2.323 -1.9751 -1.9350 -1.2460
   63SOL     MW  252   2.949   1.159   2.397  0.0013  0.0003 -0.0018
   64SOL     OW  253   1.491   1.777   2.511  0.3713 -0.0980 -0.1500
   64SOL    HW1  254   1.548   1.851   2.488  1.7959 -0.5852  1.6190
   64SOL    HW2  255   1.420   1.816   2.561  0.9070  0.1404  0.4397
   64SOL     MW  256   1.489   1.792   2.514  0.0013  0.0003 -0.0018
   65SOL     OW  257   0.956   0.731   0.574 -0.4199 -0.0449 -0.3110
   65SOL    HW1  258   0.872   0.740   0.620  0.4018 -0.2302  1.2683
   65SOL    HW2  259   0.941   0.774   0.490 -2.3303 -0.7365 -0.3719
   65SOL     MW  260   0.943   0.738   0.569  0.0013  0.0003 -0.0018
   66SOL     OW  261   0.252   2.738   1.715  0.1835  0.8571 -0.0175
   66SOL    HW1  262   0.313   2.693   1.657 -0.5793  1.3267 -1.2216
   66SOL    HW2  263   0.228   2.671   1.780 -0.9662 -0.5633 -1.7995
   66SOL     MW  264   0.256   2.723   1.716  0.0013  0.0003 -0.0018
   67SOL     OW  265   2.992   2.163   1.591  0.3272  0.0808 -0.4284
   67SOL    HW1  266   2.921   2.204   1.641 -0.0136 -0.6140 -0.3279
   67SOL    HW2  267   3.058   2.232   1.582  0.8657 -0.0383  1.8788
   67SOL     MW  268   2.991   2.177   1.596  0.0013  0.0003 -0.0018
   68SOL     OW  269   2.875   0.426   0.958 -0.6353 -0.9535  0.2174
   68SOL    HW1  270   2.906   0.427   1.049  0.4878 -1.5099 -0.1403
   68SOL    HW2  271   2.824   0.506   0.949 -0.6357 -0.8215  1.2998
   68SOL     MW  272   2.873   0.436   0.969  0.0013  0.0003 -0.0018
   69SOL     OW  273   2.485   1.139   2.093  0.8549  0.1027  0.1599
   69SOL    HW1  274   2.547   1.150   2.165  1.6575  1.1846 -0.6685
   69SOL    HW2  275   2.442   1.224   2.084 -0.0074 -0.3299  0.0310
   69SOL     MW  276   2.487   1.151   2.101  0.0013  0.0003 -0.0018
   70SOL     OW  277   1.238   2.849   2.213  0.5541  0.2184 -0.3818
   70SOL    HW1  278   1.170   2.916   2.211  1.2748  0.9838  0.2406
   70SOL    HW2  279   1.239   2.812   2.125 -1.3238 -0.4862 -0.1524
   70SOL     MW  280   1.229   2.853   2.202  0.0013  0.0003 -0.0018
   71SOL     OW  281   2.578   0.968   1.250  0.8005 -0.3615 -0.1153
   71SOL    HW1  282   2.524   1.029   1.299  2.6262 -0.0738  1.7116
   71SOL    HW2  283   2.649   1.021   1.214  0.3578 -0.8390 -1.8109
   71SOL     MW  284   2.580   0.982   1.252  0.0013  0.0003 -0.0018
   72SOL     OW  285   0.861   0.876   1.914  0.0863 -0.3353  0.0969
   72SOL    HW1  286   0.840   0.925   1.834 -0.0024  0.3772  0.5484
   72SOL    HW2  287   0.776   0.848   1.948  0.0915 -0.2284  0.1974
   72SOL     MW  288   0.847   0.879   1.908  0.0013  0.0003 -0.0018
   73SOL     OW  289   1.495   0.643   0.797 -0.5816 -0.1137  0.6182
   73SOL    HW1  290   1.469   0.606   0.882 -1.4784 -2.3634 -0.5316
   73SOL    HW2  291   1.433   0.714   0.781 -0.2425  0.5069  1.9213
   73SOL     MW  292   1.484   0.647   0.806  0.0013  0.0003 -0.0018
   74SOL     OW  293   2.372   2.666   2.312  0.1984  0.4065  0.0572
   74SOL    HW1  294   2.319   2.745   2.302 -0.4503  0.0480  0.5633
   74SOL    HW2  295   2.461   2.698   2.326  0.2408  1.0093 -1.4337
   74SOL     MW  296   2.376   2.680   2.312  0.0013  0.0003 -0.0018
   75SOL     OW  297   2.761   1.124   0.538  0.1982  0.5220 -0.0493
   75SOL    HW1  298   2.719   1.105   0.622 -0.8581  0.6357 -0.5245
   75SOL    HW2  299   2.706   1.078   0.473  0.9699  0.4675 -0.6826
   75SOL     MW  300   2.748   1.115   0.540  0.0013  0.0003 -0.0018
   76SOL     OW  301   2.749   0.353   2.897 -0.1875 -0.0076 -0.1053
   76SOL    HW1  302   2.722   0.443   2.879  0.0694  0.3941  1.3931
   76SOL    HW2  303   2.771   0.352   2.990 -0.7160 -1.7627  0.0473
   76SOL     MW  304   2.748   0.364   2.906  0.0013  0.0003 -0.0018
   77SOL     OW  305   2.182   0.513   2.896 -0.0062 -0.0954  0.0349
   77SOL    HW1  306   2.227   0.527   2.813 -0.0735 -1.0236 -0.1790
   77SOL    HW2  307   2.100   0.562   2.888  0.6459  1.0308  0.1535
   77SOL     MW  308   2.177   0.521   2.885  0.0013  0.0003 -0.0018
   78SOL     OW  309   0.118   0.769   0.313  0.0920  0.2709  0.1513
   78SOL    HW1  310   0.138   0.821   0.235 -2.6894 -0.9765 -1.5016
   78SOL    HW2  311   0.024   0.758   0.311  0.0328 -0.6328  3.2360
   78SOL     MW  312   0.109   0.774   0.303  0.0013  0.0003 -0.0018
   79SOL     OW  313   2.249   0.090   2.225 -0.4379  0.2644 -0.0672
   79SOL    HW1  314   2.181   0.110   2.290 -1.4449 -1.4234 -0.5538
   79SOL    HW2  315   2.203   0.051   2.152  0.7224  1.8626 -1.7450
   79SOL     MW  316   2.235   0.088   2.224  0.0013  0.0003 -0.0018
   80SOL     OW  317   1.081   2.512   1.202  0.0875  0.4215  0.1370
   80SOL    HW1  318   1.138   2.573   1.249 -1.1164 -0.1498  2.5407
   80SOL    HW2  319   1.082   2.432   1.256 -1.1623 -0.3931 -0.9776
   80SOL     MW  320   1.088   2.509   1.215  0.0013  0.0003 -0.0018
   81SOL     OW  321   2.740   2.151   0.934  0.1087 -0.5981  0.1854
   81SOL    HW1  322   2.800   2.151   0.860 -0.4376 -0.5334 -0.2609
   81SOL    HW2  323   2.675   2.084   0.912  0.0380 -0.7016  0.6874
   81SOL     MW  324   2.739   2.142   0.922  0.0013  0.0003 -0.0018
   82SOL     OW  325   0.219   0.703   1.738 -0.5015 -0.7516  0.5332
   82SOL    HW1  326   0.227   0.613   1.768 -0.8873 -1.0238 -0.1628
   82SOL    HW2  327   0.204   0.696   1.643 -2.2875 -0.0500  0.7171
   82SOL     MW  328   0.218   0.691   1.729  0.0013  0.0003 -0.0018
   83SOL     OW  329   1.060   1.101   2.557  0.7652 -0.5737 -0.2905
   83SOL    HW1  330   0.965   1.106   2.572  0.8708 -0.6061  0.4187
   83SOL    HW2  331   1.098   1.140   2.635  1.3380 -0.2479 -0.7251
   83SOL     MW  332   1.052   1.107   2.569  0.0013  0.0003 -0.0018
   84SOL     OW  333   0.399   1.325   0.811 -0.2104  0.0075 -0.1545
   84SOL    HW1  334   0.447   1.321   0.893  0.6726 -0.3156 -0.6736
   84SOL    HW2  335   0.424   1.245   0.765 -0.6385  0.2194 -0.7692
   84SOL     MW  336   0.408   1.314   0.815  0.0013  0.0003 -0.0018
   85SOL     OW  337   1.474   2.502   2.357 -0.5623 -0.2623  0.0380
   85SOL    HW1  338   1.452   2.557   2.432  2.1744  0.7932  0.1669
   85SOL    HW2  339   1.466   2.561   2.281 -0.5840 -0.5495 -0.1854
   85SOL     MW  340   1.470   2.517   2.357  0.0013  0.0003 -0.0018
   86SOL     OW  341   3.008  -0.008  -0.023 -0.1917 -0.4457 -0.1337
   86SOL    HW1  342   3.057  -0.001   0.059 -0.7825 -0.8389  0.2524
   86SOL    HW2  343   2.925   0.036  -0.006  0.0077  0.2197 -0.7898
   86SOL     MW  344   3.004  -0.001  -0.011  0.0013  0.0003 -0.0018
   87SOL     OW  345   1.630   2.781   2.862 -0.1305 -0.3418  0.1036
   87SOL    HW1  346   1.602   2.792   2.771 -1.6176 -3.3380  0.0887
   87SOL    HW2  347   1.562   2.825   2.913  0.1223  0.3921 -0.1751
   87SOL     MW  348   1.617   2.788   2.857  0.0013  0.0003 -0.0018
   88SOL     OW  349   0.473   0.436   0.531 -0.4142  0.4073 -0.2274
   88SOL    HW1  350   0.423   0.452   0.611  1.1498  2.6794  0.4098
   88SOL    HW2  351   0.480   0.522   0.489  0.1404 -0.4514 -1.9993
   88SOL     MW  352   0.468   0.449   0.536  0.0013  0.0003 -0.0018
   89SOL     OW  353   1.988   3.128   2.582  0.5071 -0.6041  0.2162
   89SOL    HW1  354   1.913   3.123   2.642  0.3829  1.4956  0.3282
   89SOL    HW2  355   1.976   3.054   2.522 -1.1687 -0.8369  0.7804
   89SOL     MW  356   1.977   3.118   2.582  0.0013  0.0003 -0.0018
   90SOL     OW  357   0.132   0.059   1.149  0.0128 -0.2297 -0.2836
   90SOL    HW1  358   0.100  -0.032   1.153  0.0769 -0.2381  0.1022
   90SOL    HW2  359   0.202   0.057   1.084  1.2522 -0.8535  1.0125
   90SOL     MW  360   0.137   0.047   1.141  0.0013  0.0003 -0.0018
   91SOL     OW  361   0.482   0.575   2.824  0.0650 -0.0652 -0.3634
   91SOL    HW1  362   0.457   0.540   2.738  0.6254 -0.2838 -0.4384
   91SOL    HW2  363   0.511   0.499   2.873 -2.0770 -0.2834  0.7122
   91SOL     MW  364   0.482   0.561   2.819  0.0013  0.0003 -0.0018
   92SOL     OW  365   1.673   1.707   2.238  0.0094 -0.3535 -0.4671
   92SOL    HW1  366   1.756   1.676   2.204  0.2319 -2.3847  1.7122
   92SOL    HW2  367   1.618   1.629   2.244 -1.1347  0.4828  0.5867
   92SOL     MW  368   1.676   1.693   2.235  0.0013  0.0003 -0.0018
   93SOL     OW  369   0.620   2.261   0.212  0.3374 -0.2183 -0.0421
   93SOL    HW1  370   0.665   2.260   0.296 -0.0883 -1.6871  0.2000
   93SOL    HW2  371   0.562   2.185   0.215 -0.4772  0.3246 -1.2435
   93SOL     MW  372   0.619   2.251   0.223  0.0013  0.0003 -0.0018
   94SOL     OW  373   0.474   2.063   1.623  0.1445 -0.1242 -0.3964
   94SOL    HW1  374   0.498   2.052   1.715  0.4703 -0.4871 -0.5181
   94SOL    HW2  375   0.409   2.133   1.622 -1.4270 -1.5137  0.3507
   94SOL     MW  376   0.469   2.070   1.634  0.0013  0.0003 -0.0018
   95SOL     OW  377   1.064   0.746   1.077 -0.3641 -0.5441 -0.4328
   95SOL    HW1  378   1.077   0.736   0.983  0.7249  2.9065 -0.8147
   95SOL    HW2  379   1.139   0.702   1.117 -0.0574 -0.8102 -1.2833
   95SOL     MW  380   1.076   0.739   1.070  0.0013  0.0003 -0.0018
   96SOL     OW  381   1.646   1.852   1.234 -0.5715 -0.2938  0.0550
   96SOL    HW1  382   1.673   1.833   1.324  0.2986  1.0537  0.1024
   96SOL    HW2  383   1.616   1.767   1.200 -0.7257 -0.8668  1.5332
   96SOL     MW  384   1.646   1.838   1.241  0.0013  0.0003 -0.0018
   97SOL     OW  385   2.228   2.468   2.221 -0.3787 -0.0706 -0.2828
   97SOL    HW1  386   2.308   2.519   2.227 -0.2384 -0.1519 -1.2846
   97SOL    HW2  387   2.175   2.514   2.156  0.1113 -1.6294 -1.8864
   97SOL     MW  388   2.231   2.480   2.213  0.0013  0.0003 -0.0018
   98SOL     OW  389   2.025   0.428   0.114 -0.2439 -0.1087  0.4694
   98SOL    HW1  390   2.116   0.456   0.105 -0.3709  0.4161  0.7483
   98SOL    HW2  391   2.011   0.367   0.042  0.3412 -0.2239  0.4521
   98SOL     MW  392   2.035   0.424   0.104  0.0013  0.0003 -0.0018
   99SOL     OW  393   1.561   0.495   0.188  0.8198  0.7431  0.4588
   99SOL    HW1  394   1.637   0.456   0.231 -0.1119 -0.4048  1.1180
   99SOL    HW2  395   1.565   0.465   0.098  0.6794 -0.0551  0.7114
   99SOL     MW  396   1.571   0.486   0.182  0.0013  0.0003 -0.0018
  100SOL     OW  397   1.588   0.865   2.213  0.0239 -0.4996 -0.0634
  100SOL    HW1  398   1.680   0.886   2.199 -0.3222  3.0007  1.8414
  100SOL    HW2  399   1.541   0.923   2.153 -0.9526  0.6470  1.7200
  100SOL     MW  400   1.593   0.875   2.203  0.0013  0.0003 -0.0018
  101SOL     OW  401   0.864   2.994   1.499  0.0794  0.3016 -0.3719
  101SOL    HW1  402   0.804   2.952   1.560  0.9637  1.0716  1.0981
  101SOL    HW2  403   0.819   2.992   1.415 -1.4218 -0.3114  0.4135
  101SOL     MW  404   0.851   2.988   1.496  0.0013  0.0003 -0.0018
  102SOL     OW  405   2.639   1.063   0.796  0.3964 -0.7533 -0.8148
  102SOL    HW1  406   2.613   1.113   0.873  1.6756 -0.2357 -0.6834
  102SOL    HW2  407   2.621   0.972   0.820  0.2368 -0.5500 -0.1268
  102SOL     MW  408   2.634   1.058   0.809  0.0013  0.0003 -0.0018
  103SOL     OW  409   2.308   0.536   0.251  0.2585 -0.2727 -0.3213
  103SOL    HW1  410   2.382   0.584   0.287  0.7920 -0.7654 -0.7415
  103SOL    HW2  411   2.287   0.471   0.318 -0.7982  0.8512  0.4788
  103SOL     MW  412   2.315   0.534   0.264  0.0013  0.0003 -0.0018
  104SOL     OW  413   1.496   2.012   0.469 -0.4387  0.0704 -0.2024
  104SOL    HW1  414   1.524   1.994   0.380 -0.4333 -0.4749 -0.0930
  104SOL    HW2  415   1.418   2.067   0.460 -1.0636 -0.8558 -0.5657
  104SOL     MW  416   1.490   2.017   0.457  0.0013  0.0003 -0.0018
  105SOL     OW  417   0.050   2.165   0.894  0.6917 -0.7201  0.4551
  105SOL    HW1  418   0.047   2.143   0.988  0.5956  0.8300  0.8352
  105SOL    HW2  419   0.015   2.254   0.889 -0.0682 -1.0734 -1.1651
  105SOL     MW  420   0.045   2.174   0.906  0.0013  0.0003 -0.0018
  106SOL     OW  421   2.373   2.526   2.837  0.8286 -0.1623 -0.1521
  106SOL    HW1  422   2.404   2.461   2.775 -0.1258  0.4009 -1.2643
  106SOL    HW2  423   2.448   2.583   2.853  1.6303 -1.4207  0.7349
  106SOL     MW  424   2.386   2.525   2.831  0.0013  0.0003 -0.0018
  107SOL     OW  425   2.310   0.192   2.608 -0.4105  0.5867  0.6545
  107SOL    HW1  426   2.253   0.268   2.593 -0.4524  0.7467  1.5462
  107SOL    HW2  427   2.267   0.144   2.679 -1.0589 -0.9716 -0.7385
  107SOL     MW  428   2.297   0.196   2.615  0.0013  0.0003 -0.0018
  108SOL     OW  429   1.839   0.937   2.126  0.3492 -0.5570 -0.0586
  108SOL    HW1  430   1.785   0.916   2.049 -0.4729  0.9983  0.0666
  108SOL    HW2  431   1.920   0.972   2.089 -0.2441  0.6629 -0.2316
  108SOL     MW  432   1.843   0.939   2.111  0.0013  0.0003 -0.0018
  109SOL     OW  433   2.495   0.188   0.736  0.2379 -0.2383 -0.2338
  109SOL    HW1  434   2.460   0.119   0.792  1.2091 -0.8287 -0.3517
  109SOL    HW2  435   2.491   0.267   0.790 -1.3961 -0.2520 -0.2846
  109SOL     MW  436   2.490   0.189   0.750  0.0013  0.0003 -0.0018
  110SOL     OW  437   2.889   3.025   1.628 -0.0484 -0.0178  0.1267
  110SOL    HW1  438   2.955   3.043   1.561  0.8240 -0.1951  0.9219
  110SOL    HW2  439   2.811   3.074   1.599 -0.2815 -1.4924 -1.9464
  110SOL     MW  440   2.887   3.034   1.616  0.0013  0.0003 -0.0018
  111SOL     OW  441   2.860   0.851   1.347 -0.6265  0.6128  0.0414
  111SOL    HW1  442   2.769   0.871   1.326 -0.7322  0.7660  0.6435
  111SOL    HW2  443   2.902   0.936   1.359 -1.0800  0.5578  2.5985
  111SOL     MW  444   2.854   0.864   1.346  0.0013  0.0003 -0.0018
  112SOL     OW  445   1.672   0.311   1.375 -0.1589  0.4093  0.4886
  112SOL    HW1  446   1.733   0.384   1.377  1.5002 -0.9226  2.7447
  112SOL    HW2  447   1.698   0.261   1.297  0.4321  0.8066  0.4225
  112SOL     MW  448   1.683   0.314   1.365  0.0013  0.0003 -0.0018
  113SOL     OW  449   0.483   2.613   1.534  0.5436  0.1242 -0.4266
  113SOL    HW1  450   0.545   2.542   1.545 -1.4077 -1.3481  2.0734
  113SOL    HW2  451   0.438   2.594   1.451  0.6696 -1.0770 -0.2329
  113SOL     MW  452   0.485   2.602   1.525  0.0013  0.0003 -0.0018
  114SOL     OW  453   2.191   2.515   3.038  0.0832  0.3545  0.2435
  114SOL    HW1  454   2.189   2.587   3.101 -1.0541  0.7963 -0.2745
  114SOL    HW2  455   2.259   2.540   2.976 -0.6508  1.2550 -0.2258
  114SOL     MW  456   2.199   2.527   3.038  0.0013  0.0003 -0.0018
  115SOL     OW  457   3.036   1.328   2.912 -1.1890 -0.0259  0.2413
  115SOL    HW1  458   3.075   1.342   2.825 -1.6031  0.4290  0.1284
  115SOL    HW2  459   3.038   1.414   2.953  1.9865 -0.7643  1.9628
  115SOL     MW  460   3.042   1.341   2.906  0.0013  0.0003 -0.0018
  116SOL     OW  461   1.228   1.944   1.995 -0.0872 -0.3592 -0.1041
  116SOL    HW1  462   1.173   2.017   2.022  1.0501  0.2816  0.5418
  116SOL    HW2  463   1.271   1.914   2.075  3.2752  1.5238 -1.0089
  116SOL     MW  464   1.227   1.950   2.009  0.0013  0.0003 -0.0018
  117SOL     OW  465   1.480   2.456   1.236 -0.2378  0.4749  0.1443
  117SOL    HW1  466   1.433   2.480   1.316 -0.0470  1.4044 -0.0177
  117SOL    HW2  467   1.545   2.525   1.224  0.7940 -0.4744  0.0419
  117SOL     MW  468   1.482   2.468   1.245  0.0013  0.0003 -0.0018
  118SOL     OW  469   0.577   1.003   0.065 -0.7485 -0.3095  0.2548
  118SOL    HW1  470   0.624   0.920   0.079  0.2964  0.1692 -0.2707
  118SOL    HW2  471   0.525   1.014   0.145  1.1809 -0.1503  1.5730
  118SOL     MW  472   0.577   0.993   0.077  0.0013  0.0003 -0.0018
  119SOL     OW  473   1.418   1.698   1.662 -0.3307 -0.7163  0.2872
  119SOL    HW1  474   1.453   1.682   1.574 -0.3278  0.4339  0.0734
  119SOL    HW2  475   1.480   1.654   1.720  0.2929 -0.5275 -0.2173
  119SOL     MW  476   1.430   1.690   1.658  0.0013  0.0003 -0.0018
  120SOL     OW  477   1.338   0.847   0.698 -0.0446 -0.2615  0.0035
  120SOL    HW1  478   1.269   0.795   0.740 -0.2668 -1.2645 -1.5150
  120SOL    HW2  479   1.330   0.826   0.605  0.8848  1.3328 -0.4695
  120SOL     MW  480   1.328   0.837   0.691  0.0013  0.0003 -0.0018
  121SOL     OW  481   1.241   0.401   1.577 -0.5884 -0.0206  0.4723
  121SOL    HW1  482   1.304   0.410   1.505 -1.2673  1.5564  0.0355
  121SOL    HW2  483   1.196   0.318   1.559  1.2944 -1.1872  0.7959
  121SOL     MW  484   1.243   0.391   1.565  0.0013  0.0003 -0.0018
  122SOL     OW  485   2.030   1.109   1.995  0.0903 -0.5155 -0.3441
  122SOL    HW1  486   2.117   1.103   1.956  0.3830 -2.3053  0.5128
  122SOL    HW2  487   2.036   1.183   2.056 -0.0533  1.5997 -2.7013
  122SOL     MW  488   2.042   1.118   1.997  0.0013  0.0003 -0.0018
  123SOL     OW  489   0.092   0.455   2.112  0.0751 -0.0603  0.0648
  123SOL    HW1  490   0.005   0.433   2.146  0.5362 -0.7875  0.8246
  123SOL    HW2  491   0.077   0.527   2.051 -0.9332  0.5965  1.0410
  123SOL     MW  492   0.079   0.462   2.109  0.0013  0.0003 -0.0018
  124SOL     OW  493   0.587   2.053   1.350 -0.1298 -0.8217  0.4454
  124SOL    HW1  494   0.542   2.068   1.433 -0.8515  0.2675 -0.1174
  124SOL    HW2  495   0.660   1.996   1.372 -1.6136 -2.4252  1.4381
  124SOL     MW  496   0.591   2.048   1.363  0.0013  0.0003 -0.0018
  125SOL     OW  497   0.658   1.900   2.107  0.0006 -0.2261  0.0585
  125SOL    HW1  498   0.601   1.937   2.040 -0.1831  1.9334  1.3258
  125SOL    HW2  499   0.746   1.911   2.072 -0.1319  0.2001 -0.1504
  125SOL     MW  500   0.662   1.906   2.094  0.0013  0.0003 -0.0018
  126SOL     OW  501   1.555   2.803   0.618  0.3147  0.2392 -0.2222
  126SOL    HW1  502   1.500   2.772   0.545  1.0482 -0.7428 -0.3788
  126SOL    HW2  503   1.644   2.803   0.582  0.7440 -0.6633  0.7862
  126SOL     MW  504   1.559   2.799   0.604  0.0013  0.0003 -0.0018
  127SOL     OW  505   0.904   1.527   0.229 -0.2779  0.0992 -0.0678
  127SOL    HW1  506   0.821   1.523   0.277 -1.8841 -0.9049 -2.7155
  127SOL    HW2  507   0.905   1.615   0.190  0.1195  0.2585  0.2954
  127SOL     MW  508   0.894   1.538   0.230  0.0013  0.0003 -0.0018
  128SOL     OW  509   1.130   2.360   0.971  0.3717 -0.0240 -0.4044
  128SOL    HW1  510   1.121   2.435   0.912  0.7339 -1.0400 -1.7956
  128SOL    HW2  511   1.143   2.399   1.058 -0.7019  1.5023 -0.8998
  128SOL     MW  512   1.131   2.375   0.975  0.0013  0.0003 -0.0018
  129SOL     OW  513   0.842   2.430   1.797 -0.2068  0.2271  0.3913
  129SOL    HW1  514   0.851   2.336   1.787 -1.9405  0.1629 -1.0062
  129SOL    HW2  515   0.923   2.466   1.762  0.4559 -0.7300  0.9089
  129SOL     MW  516   0.853   2.423   1.791  0.0013  0.0003 -0.0018
  130SOL     OW  517   1.780   0.359   0.277 -0.1354  0.5844 -0.7142
  130SOL    HW1  518   1.748   0.288   0.222  0.2982  0.0941 -0.3391
  130SOL    HW2  519   1.863   0.385   0.236  0.6872 -0.4380  0.2330
  130SOL     MW  520   1.786   0.353   0.264  0.0013  0.0003 -0.0018
  131SOL     OW  521   2.885   2.181   0.213  0.0735 -0.1819  0.0611
  131SOL    HW1  522   2.823   2.162   0.141 -0.4081 -1.2459  0.7353
  131SOL    HW2  523   2.968   2.196   0.169 -0.3518 -0.1959 -0.7740
  131SOL     MW  524   2.887   2.181   0.198  0.0013  0.0003 -0.0018
  132SOL     OW  525   1.425   1.973   1.780  0.4782  0.3157  0.6314
  132SOL    HW1  526   1.381   1.937   1.857  0.8277 -0.0595  0.6588
  132SOL    HW2  527   1.448   1.897   1.727 -0.2178  0.6046 -0.1034
  132SOL     MW  528   1.423   1.959   1.783  0.0013  0.0003 -0.0018
  133SOL     OW  529   3.098   3.048   2.689 -0.1953 -0.6499 -0.3279
  133SOL    HW1  530   3.010   3.052   2.653  0.4278  2.6384 -1.8230
  133SOL    HW2  531   3.091   3.093   2.774 -0.2209 -1.8549  0.3331
  133SOL     MW  532   3.086   3.054   2.695  0.0013  0.0003 -0.0018
  134SOL     OW  533   2.112   0.717   0.221  0.0435  0.2659 -1.0829
  134SOL    HW1  534   2.178   0.648   0.222 -1.0951 -0.8476  0.2471
  134SOL    HW2  535   2.144   0.782   0.283  0.7697  0.6339 -1.8185
  134SOL     MW  536   2.124   0.717   0.229  0.0013  0.0003 -0.0018
  135SOL     OW  537   2.690   1.118   2.258  0.2216  0.4352 -0.3358
  135SOL    HW1  538   2.735   1.191   2.301 -0.3844 -0.3696  1.7585
  135SOL    HW2  539   2.760   1.057   2.236  0.6188  1.1774 -1.2433
  135SOL     MW  540   2.705   1.120   2.260  0.0013  0.0003 -0.0018
  136SOL     OW  541   2.224   1.149   2.803 -0.3061  0.3555 -0.5665
  136SOL    HW1  542   2.308   1.115   2.775 -0.3485  1.7780 -2.6405
  136SOL    HW2  543   2.243   1.237   2.836 -0.6367 -0.3439  1.6391
  136SOL     MW  544   2.237   1.156   2.803  0.0013  0.0003 -0.0018
  137SOL     OW  545   2.905   1.634   2.542  0.5715 -0.1608 -0.6258
  137SOL    HW1  546   2.945   1.665   2.624 -1.6653 -0.3992  0.6274
  137SOL    HW2  547   2.821   1.680   2.537 -0.3690 -1.8777 -1.5783
  137SOL     MW  548   2.900   1.644   2.552  0.0013  0.0003 -0.0018
  138SOL     OW  549   0.663   1.470   1.591  0.7221 -0.0439 -0.4361
  138SOL    HW1  550   0.688   1.504   1.505 -0.9475 -0.8973 -1.3048
  138SOL    HW2  551   0.625   1.545   1.637  0.5165  0.1459 -0.9119
  138SOL     MW  552   0.661   1.484   1.586  0.0013  0.0003 -0.0018
  139SOL     OW  553   0.918   0.993   3.067 -0.2251  0.5681 -0.1208
  139SOL    HW1  554   0.998   0.942   3.059  0.1828  1.3215 -1.1687
  139SOL    HW2  555   0.902   1.001   3.161 -0.9347 -2.4104  0.1243
  139SOL     MW  556   0.926   0.988   3.078  0.0013  0.0003 -0.0018
  140SOL     OW  557   1.532   1.295   3.051 -0.3253  0.3536 -0.1995
  140SOL    HW1  558   1.547   1.383   3.019  1.7694  1.0790  2.4311
  140SOL    HW2  559   1.559   1.238   2.978  2.0123  1.8807 -0.6422
  140SOL     MW  560   1.538   1.299   3.037  0.0013  0.0003 -0.0018
  141SOL     OW  561   1.369   1.151   0.586 -0.4844 -0.2707  0.1876
  141SOL    HW1  562   1.444   1.093   0.603 -1.4953 -1.2991  1.3401
  141SOL    HW2  563   1.389   1.231   0.634  0.0955 -0.3703  0.1144
  141SOL     MW  564   1.381   1.154   0.595  0.0013  0.0003 -0.0018
  142SOL     OW  565   1.829   1.045   0.045  0.1845 -0.3874 -0.0605
  142SOL    HW1  566   1.819   1.017   0.136  2.3386  1.3616  0.8203
  142SOL    HW2  567   1.924   1.043   0.030 -0.0751  0.1157 -2.0258
  142SOL     MW  568   1.840   1.041   0.054  0.0013  0.0003 -0.0018
  143SOL     OW  569   1.984   2.795   1.741 -0.0723 -0.0342  0.0229
  143SOL    HW1  570   1.959   2.705   1.763  0.7419 -0.0910  0.7671
  143SOL    HW2  571   1.905   2.833   1.703 -0.3037 -1.1877 -0.7099
  143SOL     MW  572   1.970   2.788   1.739  0.0013  0.0003 -0.0018
  144SOL     OW  573   0.830   2.556   1.101 -0.9481 -0.0887  0.3436
  144SOL    HW1  574   0.921   2.530   1.115 -0.7366 -0.6520 -1.8382
  144SOL    HW2  575   0.781   2.509   1.169  0.1330 -1.4550  0.2038
  144SOL     MW  576   0.835   2.547   1.112  0.0013  0.0003 -0.0018
  145SOL     OW  577   3.072   0.431   1.163  0.3984  0.0562  0.7449
  145SOL    HW1  578   3.017   0.483   1.221 -0.3192  0.8178 -0.5746
  145SOL    HW2  579   3.103   0.493   1.097  0.9579 -0.8390  0.1353
  145SOL     MW  580   3.069   0.445   1.162  0.0013  0.0003 -0.0018
  146SOL     OW  581   1.371   0.264   0.027 -0.0417 -0.0018 -0.1891
  146SOL    HW1  582   1.334   0.223   0.104  1.2767 -0.8050  0.0484
  146SOL    HW2  583   1.463   0.278   0.049  0.0043  1.2073 -1.0366
  146SOL     MW  584   1.378   0.261   0.039  0.0013  0.0003 -0.0018
  147SOL     OW  585   0.183   0.981   1.820  0.6626  0.1555 -0.5280
  147SOL    HW1  586   0.228   0.901   1.792  2.1717  0.7274  0.1185
  147SOL    HW2  587   0.125   1.003   1.747  0.1188 -1.5839 -0.6504
  147SOL     MW  588   0.181   0.974   1.807  0.0013  0.0003 -0.0018
  148SOL     OW  589   0.408   2.125   2.649  0.3209  0.1349  0.3010
  148SOL    HW1  590   0.422   2.030   2.655  1.3331  0.1805 -0.9494
  148SOL    HW2  591   0.399   2.153   2.740 -1.0290 -1.2843  0.6643
  148SOL     MW  592   0.409   2.116   2.661  0.0013  0.0003 -0.0018
  149SOL     OW  593   0.496   0.579   1.475  0.3028  0.2040  0.1572
  149SOL    HW1  594   0.518   0.598   1.566  2.2744 -0.5116 -0.1351
  149SOL    HW2  595   0.509   0.485   1.465 -0.2599  0.2068 -0.7809
  149SOL     MW  596   0.500   0.570   1.485  0.0013  0.0003 -0.0018
  150SOL     OW  597   1.551   1.177   0.262  0.1086 -0.2942  0.4790
  150SOL    HW1  598   1.638   1.212   0.284 -0.0053 -0.1284  0.6612
  150SOL    HW2  599   1.553   1.169   0.167  1.2944 -2.7873  0.6194
  150SOL     MW  600   1.563   1.181   0.253  0.0013  0.0003 -0.0018
  151SOL     OW  601   1.186   1.202   2.775 -0.0333  0.5470  0.3078
  151SOL    HW1  602   1.139   1.258   2.837 -1.7708  0.2490 -0.6785
  151SOL    HW2  603   1.216   1.128   2.828 -0.7496  0.7094  0.9574
  151SOL     MW  604   1.184   1.200   2.790  0.0013  0.0003 -0.0018
  152SOL     OW  605   0.091   0.074   0.164 -0.6251  0.1537 -0.1388
  152SOL    HW1  606   0.094   0.122   0.247  0.7557 -0.9033  0.4548
  152SOL    HW2  607   0.143   0.128   0.104 -0.6023  0.3101  0.0187
  152SOL     MW  608   0.098   0.087   0.167  0.0013  0.0003 -0.0018
  153SOL     OW  609   0.798   2.231   0.006 -0.3818  0.0532 -0.0746
  153SOL    HW1  610   0.792   2.319   0.043 -1.1791  0.1655 -0.4407
  153SOL    HW2  611   0.752   2.175   0.069 -0.2841 -0.0210 -0.0696
  153SOL     MW  612   0.791   2.235   0.019  0.0013  0.0003 -0.0018
  154SOL     OW  613   1.416   2.374   0.974 -0.3531 -0.4147  0.8182
  154SOL    HW1  614   1.435   2.400   1.064 -1.8474  1.8524  0.5446
  154SOL    HW2  615   1.321   2.369   0.970 -0.4514  1.5957 -1.1204
  154SOL     MW  616   1.406   2.377   0.985  0.0013  0.0003 -0.0018
  155SOL     OW  617   2.212   1.910   2.809 -0.0851  0.3297 -0.0325
  155SOL    HW1  618   2.237   1.835   2.862 -0.2225 -0.8205 -1.5277
  155SOL    HW2  619   2.147   1.875   2.747  0.4672  1.4726 -1.3141
  155SOL     MW  620   2.207   1.896   2.808  0.0013  0.0003 -0.0018
  156SOL     OW  621   1.382   1.457   1.091 -0.1758  0.4058 -0.0040
  156SOL    HW1  622   1.412   1.371   1.062 -1.0130 -0.0636  0.4799
  156SOL    HW2  623   1.315   1.482   1.028  0.0552  0.7094 -0.1373
  156SOL     MW  624   1.377   1.450   1.079  0.0013  0.0003 -0.0018
  157SOL     OW  625   3.019   1.053   0.104  0.1790  0.5305  0.3695
  157SOL    HW1  626   2.995   0.970   0.145 -0.4291  0.3304 -0.3601
  157SOL    HW2  627   3.032   1.031   0.011 -0.6091  1.3583  0.0499
  157SOL     MW  628   3.018   1.040   0.097  0.0013  0.0003 -0.0018
  158SOL     OW  629   1.081   2.082   1.269  0.1813 -0.2701  0.7738
  158SOL    HW1  630   1.048   2.162   1.308  2.0334  0.6381  0.5963
  158SOL    HW2  631   1.026   2.068   1.192  0.2553  1.2338  0.4165
  158SOL     MW  632   1.070   2.090   1.264  0.0013  0.0003 -0.0018
  159SOL     OW  633   0.756   1.340   2.334  0.0700 -0.5387  0.7792
  159SOL    HW1  634   0.774   1.316   2.244  0.9587  0.3620  0.7002
  159SOL    HW2  635   0.804   1.274   2.386  1.3575  0.2019  0.5732
  159SOL     MW  636   0.764   1.328   2.329  0.0013  0.0003 -0.0018
  160SOL     OW  637   2.111   1.092   3.049  0.5064  0.1826  0.1713
  160SOL    HW1  638   2.140   1.167   3.102  0.1657  0.9747 -0.7221
  160SOL    HW2  639   2.138   1.114   2.960 -1.5501  0.3166 -0.4811
  160SOL     MW  640   2.118   1.105   3.045  0.0013  0.0003 -0.0018
  161SOL     OW  641   2.052   1.238   2.590  0.4499 -0.0649 -1.0110
  161SOL    HW1  642   2.100   1.195   2.661  0.6416 -0.1154 -1.1691
  161SOL    HW2  643   1.974   1.184   2.578 -1.1379  1.5868  1.1784
  161SOL     MW  644   2.049   1.226   2.598  0.0013  0.0003 -0.0018
  162SOL     OW  645   1.242   0.495   2.374  0.0722 -0.1208 -0.0188
  162SOL    HW1  646   1.219   0.431   2.307 -2.0993  0.5777 -0.0017
  162SOL    HW2  647   1.252   0.577   2.326 -1.9348  0.4797  0.4827
  162SOL     MW  648   1.241   0.498   2.359  0.0013  0.0003 -0.0018
  163SOL     OW  649   0.294   1.265   2.574 -0.2130  0.2239 -0.8147
  163SOL    HW1  650   0.211   1.278   2.620  0.4265  0.9028  0.1770
  163SOL    HW2  651   0.333   1.352   2.569  0.5694 -0.1304 -1.0447
  163SOL     MW  652   0.289   1.277   2.579  0.0013  0.0003 -0.0018
  164SOL     OW  653   2.060   0.214   1.901 -0.2845  0.5730 -0.0133
  164SOL    HW1  654   2.044   0.135   1.953  0.3989  1.5365  1.7241
  164SOL    HW2  655   2.006   0.281   1.943  0.5694  1.4639 -0.3221
  164SOL     MW  656   2.051   0.212   1.913  0.0013  0.0003 -0.0018
  165SOL     OW  657   2.878   1.623   2.130 -0.4675  0.0512  0.1929
  165SOL    HW1  658   2.951   1.637   2.191 -1.1842  2.4336  0.6412
  165SOL    HW2  659   2.841   1.711   2.118 -2.0203 -0.7888 -1.5914
  165SOL     MW  660   2.883   1.636   2.137  0.0013  0.0003 -0.0018
  166SOL     OW  661   2.503   1.907   1.636 -0.6087 -0.0555  0.4312
  166SOL    HW1  662   2.463   1.838   1.583  0.9177 -0.1840 -0.5938
  166SOL    HW2  663   2.577   1.866   1.679  0.1851  0.8635 -0.0065
  166SOL     MW  664   2.507   1.893   1.635  0.0013  0.0003 -0.0018
  167SOL     OW  665   1.753   0.282   2.877 -0.1540 -0.5669  0.0812
  167SOL    HW1  666   1.695   0.205   2.876 -0.6108 -0.3714  2.6161
  167SOL    HW2  667   1.812   0.266   2.950  0.1690  1.1874  0.2548
  167SOL     MW  668   1.753   0.270   2.886  0.0013  0.0003 -0.0018
  168SOL     OW  669   1.659   0.615   2.793  0.1950  0.1805 -0.4032
  168SOL    HW1  670   1.589   0.677   2.772  0.4167  0.7762  0.5516
  168SOL    HW2  671   1.646   0.595   2.886  2.6726  2.1704  0.4856
  168SOL     MW  672   1.649   0.620   2.803  0.0013  0.0003 -0.0018
  169SOL     OW  673   0.909   0.118   1.673 -0.2527  0.1611 -0.1617
  169SOL    HW1  674   0.923   0.092   1.764 -0.5839 -0.1803 -0.2059
  169SOL    HW2  675   0.880   0.038   1.629  0.1765  0.2544 -0.6302
  169SOL     MW  676   0.907   0.104   1.679  0.0013  0.0003 -0.0018
  170SOL     OW  677   1.717   2.514   2.484 -0.0486 -0.7991 -0.3941
  170SOL    HW1  678   1.629   2.517   2.446 -0.4853 -0.6241  0.6077
  170SOL    HW2  679   1.748   2.425   2.465  0.1465 -0.4261 -1.9949
  170SOL     MW  680   1.709   2.503   2.476  0.0013  0.0003 -0.0018
  171SOL     OW  681   1.460   0.850   1.669 -0.0840  0.5899 -0.4368
  171SOL    HW1  682   1.504   0.933   1.690  0.0870  0.3023  0.3828
  171SOL    HW2  683   1.383   0.875   1.618 -0.6798  1.3600  0.7984
  171SOL     MW  684   1.456   0.864   1.665  0.0013  0.0003 -0.0018
  172SOL     OW  685   0.606   0.838   1.985  0.9267  0.1482 -0.4579
  172SOL    HW1  686   0.584   0.929   2.007  1.3550  0.0494  0.4236
  172SOL    HW2  687   0.547   0.816   1.914 -0.3761  0.5673  0.4515
  172SOL     MW  688   0.596   0.847   1.979  0.0013  0.0003 -0.0018
  173SOL     OW  689   1.983   2.928   2.404 -0.5782 -0.3034 -0.3113
  173SOL    HW1  690   1.972   2.878   2.486 -0.7229  0.1266 -0.0620
  173SOL    HW2  691   1.894   2.954   2.381 -0.4915 -0.0749 -0.3860
  173SOL     MW  692   1.970   2.925   2.412  0.0013  0.0003 -0.0018
  174SOL     OW  693   3.051   2.718   0.452  0.5638 -0.0109  0.3055
  174SOL    HW1  694   2.973   2.700   0.400  0.9979 -0.1765 -0.3047
  174SOL    HW2  695   3.018   2.758   0.532 -0.0441  1.3893 -0.5988
  174SOL     MW  696   3.037   2.720   0.455  0.0013  0.0003 -0.0018
  175SOL     OW  697   2.223   0.459   1.091 -0.5382 -0.5565  0.2230
  175SOL    HW1  698   2.130   0.482   1.096 -0.1004  1.3752  0.0675
  175SOL    HW2  699   2.256   0.469   1.180  0.2662  2.3430 -0.3235
  175SOL     MW  700   2.215   0.463   1.103  0.0013  0.0003 -0.0018
  176SOL     OW  701   1.288   2.560   0.104 -0.1287  0.2112 -0.2815
  176SOL    HW1  702   1.259   2.469   0.097  0.8110 -0.2224  1.1375
  176SOL    HW2  703   1.373   2.556   0.146  0.4793  1.6976 -1.2618
  176SOL     MW  704   1.295   2.548   0.108  0.0013  0.0003 -0.0018
  177SOL     OW  705   0.359   0.143   0.977 -0.6426 -0.2531 -0.4220
  177SOL    HW1  706   0.299   0.199   0.929  0.8828  1.0255 -0.9524
  177SOL    HW2  707   0.405   0.093   0.910 -0.1895 -0.2318 -0.1388
  177SOL     MW  708   0.357   0.144   0.963  0.0013  0.0003 -0.0018
  178SOL     OW  709   1.355   2.163   1.589 -0.6462  0.2472 -0.0611
  178SOL    HW1  710   1.389   2.121   1.511 -1.4459  1.1178 -0.9143
  178SOL    HW2  711   1.365   2.098   1.658  2.8365  0.4838 -0.1641
  178SOL     MW  712   1.360   2.150   1.588  0.0013  0.0003 -0.0018
  179SOL     OW  713   0.334   0.129   2.330  0.0960 -0.6182  0.6242
  179SOL    HW1  714   0.249   0.126   2.374 -0.4374 -0.2582 -0.3472
  179SOL    HW2  715   0.320   0.186   2.254  1.4718  0.2897  0.9961
  179SOL     MW  716   0.322   0.136   2.326  0.0013  0.0003 -0.0018
  180SOL     OW  717   2.600   0.535   2.574  0.0523  0.3379  0.0339
  180SOL    HW1  718   2.609   0.559   2.667  2.3788 -0.2235  0.0345
  180SOL    HW2  719   2.515   0.569   2.548 -1.7613 -1.4923  2.9791
  180SOL     MW  720   2.590   0.543   2.583  0.0013  0.0003 -0.0018
  181SOL     OW  721   2.238   2.974   0.788 -0.2862 -0.0252 -0.4079
  181SOL    HW1  722   2.214   2.913   0.858  0.8776  0.1922  0.1962
  181SOL    HW2  723   2.309   3.026   0.825  0.0776  0.3583 -1.6241
  181SOL     MW  724   2.244   2.973   0.802  0.0013  0.0003 -0.0018
  182SOL     OW  725   1.246   1.026   0.953  0.1548  0.3109  0.4567
  182SOL    HW1  726   1.232   0.940   0.994  0.1263  1.5108  3.2237
  182SOL    HW2  727   1.172   1.036   0.893  0.2288 -1.6226 -0.0306
  182SOL     MW  728   1.235   1.016   0.951  0.0013  0.0003 -0.0018
  183SOL     OW  729   1.144   2.976   1.462 -0.3083 -0.5449  0.0425
  183SOL    HW1  730   1.206   3.027   1.514  0.9876 -2.3976  0.3975
  183SOL    HW2  731   1.063   2.976   1.513  0.2051 -0.2875  0.8653
  183SOL     MW  732   1.142   2.983   1.475  0.0013  0.0003 -0.0018
  184SOL     OW  733   1.391   2.977   0.131  0.0367  0.0330 -0.3648
  184SOL    HW1  734   1.327   2.954   0.064 -0.2929 -1.1693  0.3270
  184SOL    HW2  735   1.476   2.956   0.093 -0.2096 -1.6623 -0.0572
  184SOL     MW  736   1.393   2.971   0.118  0.0013  0.0003 -0.0018
  185SOL     OW  737   1.753   2.813   0.421 -0.2015  0.1409  0.2823
  185SOL    HW1  738   1.836   2.770   0.396 -0.3674  0.2577 -0.4873
  185SOL    HW2  739   1.766   2.905   0.398 -0.0377  0.4201  1.4594
  185SOL     MW  740   1.766   2.819   0.415  0.0013  0.0003 -0.0018
  186SOL     OW  741   0.521   1.262   1.288  0.4110 -0.4891 -0.9230
  186SOL    HW1  742   0.558   1.178   1.317 -0.6953 -0.8565 -0.4998
  186SOL    HW2  743   0.483   1.300   1.367  0.9525  0.4559 -1.1027
  186SOL     MW  744   0.521   1.256   1.302  0.0013  0.0003 -0.0018
  187SOL     OW  745   1.751   0.796   0.827 -0.2562 -0.2905  0.0645
  187SOL    HW1  746   1.673   0.741   0.819  0.3210 -1.0786 -0.2431
  187SOL    HW2  747   1.721   0.873   0.876 -1.0793 -0.8704  0.4944
  187SOL     MW  748   1.737   0.799   0.832  0.0013  0.0003 -0.0018
  188SOL     OW  749   2.924   2.962   0.236  0.1326 -0.1883 -0.1009
  188SOL    HW1  750   2.962   2.907   0.167 -1.2578 -1.0939 -0.1804
  188SOL    HW2  751   2.867   2.903   0.285 -0.2176  0.8426  0.7719
  188SOL     MW  752   2.922   2.947   0.234  0.0013  0.0003 -0.0018
  189SOL     OW  753   1.273   1.840   2.694 -0.3169 -0.0482 -0.0556
  189SOL    HW1  754   1.281   1.789   2.775  0.0947 -1.9726 -1.2565
  189SOL    HW2  755   1.197   1.803   2.649  0.0464  0.3275 -1.0029
  189SOL     MW  756   1.265   1.829   2.699  0.0013  0.0003 -0.0018
  190SOL     OW  757   0.953   2.019   2.790  0.1135 -0.7632 -0.6150
  190SOL    HW1  758   0.978   2.044   2.701 -0.2135 -0.9092 -0.7481
  190SOL    HW2  759   0.940   1.924   2.786  0.1897 -0.7848 -0.3899
  190SOL     MW  760   0.955   2.010   2.778  0.0013  0.0003 -0.0018
  191SOL     OW  761   2.738   0.086   3.101 -0.1685  0.2838  0.3527
  191SOL    HW1  762   2.698   0.036   3.173 -0.8094  1.0471  0.5464
  191SOL    HW2  763   2.667   0.097   3.037 -0.1765  1.3054  0.5155
  191SOL     MW  764   2.724   0.081   3.102  0.0013  0.0003 -0.0018
  192SOL     OW  765   1.646   1.983   2.991  0.4804 -0.3924  0.2085
  192SOL    HW1  766   1.657   1.893   3.022  0.4487 -0.1441  0.9580
  192SOL    HW2  767   1.691   2.036   3.057  1.9872  0.0241 -1.1050
  192SOL     MW  768   1.653   1.978   3.004  0.0013  0.0003 -0.0018
  193SOL     OW  769   2.368   1.324   1.215 -0.3239  0.6708 -0.1880
  193SOL    HW1  770   2.398   1.415   1.216  0.2356  0.4881  0.1924
  193SOL    HW2  771   2.278   1.328   1.246  0.0331  0.9877  0.8605
  193SOL     MW  772   2.360   1.336   1.219  0.0013  0.0003 -0.0018
  194SOL     OW  773   0.406   2.424   0.261 -0.4839  0.0601  0.0358
  194SOL    HW1  774   0.496   2.396   0.246 -0.3037  0.6862 -0.0611
  194SOL    HW2  775   0.374   2.364   0.329 -0.2082 -0.5768 -0.3823
  194SOL     MW  776   0.413   2.413   0.268  0.0013  0.0003 -0.0018
  195SOL     OW  777   0.111   2.068   0.477  0.4943  0.9036 -0.3930
  195SOL    HW1  778   0.170   2.139   0.502  0.2106  0.8315  0.5168
  195SOL    HW2  779   0.156   1.988   0.507  2.3851  0.2665 -4.1779
  195SOL     MW  780   0.125   2.067   0.484  0.0013  0.0003 -0.0018
  196SOL     OW  781   2.523   0.281   1.799 -0.2783  0.5821 -0.0523
  196SOL    HW1  782   2.580   0.354   1.777  0.8270 -0.1498  0.2916
  196SOL    HW2  783   2.573   0.203   1.774 -0.6834 -0.1164  1.2158
  196SOL     MW  784   2.536   0.280   1.793  0.0013  0.0003 -0.0018
  197SOL     OW  785   2.179   2.665   2.689 -0.5150 -0.4365 -0.1564
  197SOL    HW1  786   2.236   2.606   2.739  0.0020 -0.6967 -1.0341
  197SOL    HW2  787   2.157   2.615   2.610 -0.0936  0.5322 -0.8988
  197SOL     MW  788   2.184   2.651   2.686  0.0013  0.0003 -0.0018
  198SOL     OW  789   1.589   3.069   1.088  0.0035  0.2998  0.3067
  198SOL    HW1  790   1.655   3.119   1.135 -0.1147  1.9445 -1.1436
  198SOL    HW2  791   1.638   3.022   1.020 -0.0496 -0.4586  0.7855
  198SOL     MW  792   1.604   3.069   1.085  0.0013  0.0003 -0.0018
  199SOL     OW  793   2.800   2.554   2.522 -0.1743 -0.6460 -0.3420
  199SOL    HW1  794   2.830   2.489   2.586 -0.2442 -2.3145 -1.9307
  199SOL    HW2  795   2.718   2.518   2.488  0.1482 -0.0933 -1.7676
  199SOL     MW  796   2.793   2.541   2.526  0.0013  0.0003 -0.0018
  200SOL     OW  797   0.489   1.135   1.729  0.0142 -0.7874 -0.1892
  200SOL    HW1  798   0.549   1.168   1.795  1.5804  0.0392 -1.9393
  200SOL    HW2  799   0.503   1.041   1.728  0.5369 -0.7151  0.1393
  200SOL     MW  800   0.498   1.128   1.737  0.0013  0.0003 -0.0018
  201SOL     OW  801   2.557   1.524   2.471  0.0103  0.1168  0.2485
  201SOL    HW1  802   2.604   1.461   2.525 -0.9318  0.1366  1.1363
  201SOL    HW2  803   2.501   1.571   2.533 -1.3257 -0.0626 -0.7605
  201SOL     MW  804   2.556   1.522   2.486  0.0013  0.0003 -0.0018
  202SOL     OW  805   2.237   1.262   0.170  0.5227  0.3052  0.4989
  202SOL    HW1  806   2.218   1.248   0.263  1.5236  0.9771  0.8228
  202SOL    HW2  807   2.316   1.316   0.170  1.7976 -1.4345 -0.7441
  202SOL     MW  808   2.245   1.267   0.182  0.0013  0.0003 -0.0018
  203SOL     OW  809   1.513   1.541   2.931 -0.0147  0.0781  0.6405
  203SOL    HW1  810   1.443   1.600   2.958  0.4196  0.6538  0.5253
  203SOL    HW2  811   1.593   1.581   2.965  0.4310  0.2876 -0.5934
  203SOL     MW  812   1.515   1.554   2.939  0.0013  0.0003 -0.0018
  204SOL     OW  813   1.831   0.957   0.301  0.0624 -0.1567 -0.1556
  204SOL    HW1  814   1.865   0.867   0.298  2.1884  0.4698  1.7067
  204SOL    HW2  815   1.753   0.951   0.356 -0.4975 -1.0406 -1.0365
  204SOL     MW  816   1.826   0.945   0.308  0.0013  0.0003 -0.0018
  205SOL     OW  817   3.087   0.161   2.891 -0.2319 -0.3451  0.1379
  205SOL    HW1  818   3.052   0.101   2.956  0.9806 -0.0790  1.0725
  205SOL    HW2  819   3.049   0.246   2.914 -0.5875 -0.4283 -0.1282
  205SOL     MW  820   3.078   0.165   2.902  0.0013  0.0003 -0.0018
  206SOL     OW  821   0.630   2.402   2.748  0.0736 -0.0409  0.1281
  206SOL    HW1  822   0.626   2.315   2.787 -2.9012  0.1922  0.6119
  206SOL    HW2  823   0.646   2.386   2.655  2.0255 -0.9065  0.5756
  206SOL     MW  824   0.632   2.389   2.741  0.0013  0.0003 -0.0018
  207SOL     OW  825   1.504   2.817   1.421 -0.8164 -0.3459  0.0331
  207SOL    HW1  826   1.527   2.910   1.431 -0.7716 -0.4943  1.4449
  207SOL    HW2  827   1.413   2.819   1.390 -0.7854  0.1705 -0.0447
  207SOL     MW  828   1.495   2.829   1.418  0.0013  0.0003 -0.0018
  208SOL     OW  829   2.278   2.495   0.752  0.3913  0.5563 -0.8410
  208SOL    HW1  830   2.237   2.467   0.834  0.1970  0.4865 -0.9601
  208SOL    HW2  831   2.320   2.578   0.774  0.2425  0.5965 -0.6986
  208SOL     MW  832   2.278   2.502   0.766  0.0013  0.0003 -0.0018
  209SOL     OW  833   1.733   2.312   1.847  0.1510 -0.3682  0.3661
  209SOL    HW1  834   1.713   2.219   1.842 -0.1836 -0.2160 -3.2582
  209SOL    HW2  835   1.649   2.357   1.836  0.2686  0.4337  2.3118
  209SOL     MW  836   1.720   2.306   1.845  0.0013  0.0003 -0.0018
  210SOL     OW  837   1.720   0.047   2.682  0.3814  0.1393  0.7726
  210SOL    HW1  838   1.757   0.105   2.615  0.0985 -0.4371  0.1063
  210SOL    HW2  839   1.627   0.041   2.659  0.6388 -1.6207  0.0301
  210SOL     MW  840   1.713   0.054   2.671  0.0013  0.0003 -0.0018
  211SOL     OW  841   1.837   1.788   2.455 -0.0155  0.1002 -0.2146
  211SOL    HW1  842   1.891   1.857   2.416  2.6753 -2.2252 -0.9904
  211SOL    HW2  843   1.779   1.760   2.385  1.3734 -0.7543 -1.0637
  211SOL     MW  844   1.837   1.793   2.441  0.0013  0.0003 -0.0018
  212SOL     OW  845   1.147   0.403   0.065  0.2945  0.2441 -0.0664
  212SOL    HW1  846   1.133   0.469  -0.002  0.5177  0.0218 -0.3339
  212SOL    HW2  847   1.228   0.359   0.039 -0.6573 -1.1795 -0.7534
  212SOL     MW  848   1.155   0.406   0.053  0.0013  0.0003 -0.0018
  213SOL     OW  849   2.373   2.741   0.723  0.3302 -0.3630 -0.4061
  213SOL    HW1  850   2.444   2.781   0.772 -0.7577 -1.4048  2.2403
  213SOL    HW2  851   2.308   2.810   0.713  1.7774  0.7247 -3.2430
  213SOL     MW  852   2.374   2.755   0.728  0.0013  0.0003 -0.0018
  214SOL     OW  853   2.977   0.523   1.609 -0.0112 -0.0019 -0.0743
  214SOL    HW1  854   2.973   0.471   1.689 -0.9418 -1.2702 -0.9133
  214SOL    HW2  855   3.061   0.501   1.569  0.6853  1.0182  0.7713
  214SOL     MW  856   2.987   0.514   1.614  0.0013  0.0003 -0.0018
  215SOL     OW  857   0.416   2.297   1.863  1.1210 -0.2883 -0.1266
  215SOL    HW1  858   0.344   2.249   1.823  0.6170  1.2060 -1.1080
  215SOL    HW2  859   0.472   2.321   1.789  1.4455  0.4675  0.3565
  215SOL     MW  860   0.414   2.294   1.848  0.0013  0.0003 -0.0018
  216SOL     OW  861   0.172   2.156   1.923 -0.5891  0.4975 -0.0238
  216SOL    HW1  862   0.126   2.076   1.898  2.3560 -1.2306 -0.4417
  216SOL    HW2  863   0.197   2.141   2.014  0.1469  0.8070 -0.1652
  216SOL     MW  864   0.169   2.144   1.931  0.0013  0.0003 -0.0018
  217SOL     OW  865   2.707   2.234   0.018 -0.1857  0.1304  0.9170
  217SOL    HW1  866   2.688   2.327   0.034 -2.7711  0.0179 -0.9003
  217SOL    HW2  867   2.636   2.188   0.063 -0.0507 -0.8486  0.1396
  217SOL     MW  868   2.695   2.240   0.026  0.0013  0.0003 -0.0018
  218SOL     OW  869   0.748   2.160   1.796 -0.2073 -0.6059 -0.3348
  218SOL    HW1  870   0.782   2.162   1.885  1.2249 -0.7892 -0.8341
  218SOL    HW2  871   0.762   2.069   1.768  2.3848  0.1128 -1.7754
  218SOL     MW  872   0.754   2.148   1.804  0.0013  0.0003 -0.0018
  219SOL     OW  873   0.394   2.561   1.044 -0.1367 -0.2409 -0.0044
  219SOL    HW1  874   0.371   2.566   1.136  2.3444  0.3823  0.6450
  219SOL    HW2  875   0.440   2.478   1.034  2.8737  1.2468  0.2400
  219SOL     MW  876   0.397   2.551   1.054  0.0013  0.0003 -0.0018
  220SOL     OW  877   2.023   1.378   0.971 -0.2452  1.1006  0.4103
  220SOL    HW1  878   2.103   1.406   0.928 -1.2156  0.1135 -2.2374
  220SOL    HW2  879   2.042   1.290   1.004 -0.5127  0.4079 -1.2009
  220SOL     MW  880   2.036   1.370   0.970  0.0013  0.0003 -0.0018
  221SOL     OW  881   0.644   1.951   0.883  0.4025  0.4625  0.1793
  221SOL    HW1  882   0.574   1.930   0.820 -0.6244  2.0043  0.7205
  221SOL    HW2  883   0.679   2.034   0.851  1.6387 -0.0326  0.2281
  221SOL     MW  884   0.639   1.959   0.871  0.0013  0.0003 -0.0018
  222SOL     OW  885   2.760   1.007   2.853 -0.5532  0.1224  0.4828
  222SOL    HW1  886   2.785   1.009   2.761  0.3502 -1.5542  0.6516
  222SOL    HW2  887   2.841   1.027   2.900 -1.0492  1.1488  0.9331
  222SOL     MW  888   2.774   1.010   2.847  0.0013  0.0003 -0.0018
  223SOL     OW  889   1.830   2.456   2.109 -0.5979 -0.1165 -0.4434
  223SOL    HW1  890   1.794   2.511   2.039 -0.5912  0.8674  0.3088
  223SOL    HW2  891   1.895   2.401   2.066 -0.6115  0.4600 -1.2116
  223SOL     MW  892   1.833   2.456   2.095  0.0013  0.0003 -0.0018
  224SOL     OW  893   0.197   1.528   2.798 -0.0157 -0.0953  0.5084
  224SOL    HW1  894   0.222   1.538   2.706 -0.9751 -1.5640  0.0416
  224SOL    HW2  895   0.152   1.609   2.819 -0.7270 -0.1557 -0.6628
  224SOL     MW  896   0.194   1.539   2.789  0.0013  0.0003 -0.0018
  225SOL     OW  897   3.041   0.344   2.447  0.4101  0.0386 -0.2010
  225SOL    HW1  898   2.965   0.322   2.500 -1.5299  1.0471 -2.3606
  225SOL    HW2  899   3.005   0.361   2.360  3.2246 -0.1311 -1.5042
  225SOL     MW  900   3.026   0.344   2.443  0.0013  0.0003 -0.0018
  226SOL     OW  901   1.854   2.007   1.110  0.5069 -0.3480  0.2944
  226SOL    HW1  902   1.799   2.084   1.096  0.9261 -0.3881 -1.8908
  226SOL    HW2  903   1.795   1.942   1.148 -1.0137 -0.3371 -1.8406
  226SOL     MW  904   1.840   2.008   1.113  0.0013  0.0003 -0.0018
  227SOL     OW  905   0.231   0.552   2.909  0.1903  0.2584  0.1202
  227SOL    HW1  906   0.311   0.555   2.856 -0.7094  1.2126 -1.2416
  227SOL    HW2  907   0.260   0.573   2.997  1.8051 -1.8183  0.1594
  227SOL     MW  908   0.245   0.555   2.913  0.0013  0.0003 -0.0018
  228SOL     OW  909   2.652   1.827   0.457 -0.1149 -0.1715  0.0153
  228SOL    HW1  910   2.735   1.781   0.469 -0.4135 -1.5887 -2.6731
  228SOL    HW2  911   2.675   1.920   0.464  0.9354 -0.5508  3.0989
  228SOL     MW  912   2.665   1.833   0.460  0.0013  0.0003 -0.0018
  229SOL     OW  913   1.763   2.216   1.361 -0.4804 -0.4672 -0.5526
  229SOL    HW1  914   1.771   2.216   1.265 -0.6888  0.5269 -0.5741
  229SOL    HW2  915   1.852   2.235   1.392 -0.7848  1.2064 -0.6072
  229SOL     MW  916   1.776   2.218   1.353  0.0013  0.0003 -0.0018
  230SOL     OW  917   1.209   2.361   2.005  0.2190 -0.1089  0.6567
  230SOL    HW1  918   1.299   2.332   1.993  0.4354 -0.5389  2.8805
  230SOL    HW2  919   1.167   2.289   2.053 -0.5059  1.2689  2.1703
  230SOL     MW  920   1.215   2.348   2.009  0.0013  0.0003 -0.0018
  231SOL     OW  921   0.423   2.065   0.226 -0.0800  0.3254 -0.1659
  231SOL    HW1  922   0.401   2.009   0.300 -0.8182 -0.0098 -0.6297
  231SOL    HW2  923   0.341   2.078   0.179  0.3934  0.4176 -1.0047
  231SOL     MW  924   0.410   2.059   0.229  0.0013  0.0003 -0.0018
  232SOL     OW  925   1.646   2.872   0.049  0.2346 -0.3248  0.3837
  232SOL    HW1  926   1.720   2.888   0.107 -0.4245 -1.3462  1.5641
  232SOL    HW2  927   1.612   2.787   0.077 -0.8488 -0.2854 -0.7178
  232SOL     MW  928   1.651   2.863   0.060  0.0013  0.0003 -0.0018
  233SOL     OW  929   0.282   2.243   2.413  0.7748 -0.1330 -0.3601
  233SOL    HW1  930   0.366   2.289   2.420  0.2247  1.1092 -1.4230
  233SOL    HW2  931   0.288   2.194   2.331  0.6703 -0.5067 -0.1481
  233SOL     MW  932   0.294   2.243   2.403  0.0013  0.0003 -0.0018
  234SOL     OW  933   1.667   0.179   1.616 -0.3274 -0.0629  0.0777
  234SOL    HW1  934   1.664   0.242   1.544  1.4065  0.1163  0.1110
  234SOL    HW2  935   1.749   0.199   1.662  0.7717 -2.8699 -0.4215
  234SOL     MW  936   1.677   0.189   1.613  0.0013  0.0003 -0.0018
  235SOL     OW  937   0.334   0.337   2.152  0.1567 -0.4118 -0.1309
  235SOL    HW1  938   0.245   0.372   2.142  0.2490 -0.1439 -0.0294
  235SOL    HW2  939   0.377   0.399   2.212  0.6328 -0.1357 -0.7499
  235SOL     MW  940   0.328   0.350   2.159  0.0013  0.0003 -0.0018
  236SOL     OW  941   2.019   0.869   0.941  0.5934 -0.1872 -0.1542
  236SOL    HW1  942   1.944   0.849   0.883  1.3988 -0.3148 -1.1825
  236SOL    HW2  943   2.089   0.895   0.881  1.8226 -1.4576  0.6557
  236SOL     MW  944   2.018   0.870   0.926  0.0013  0.0003 -0.0018
  237SOL     OW  945   0.722   2.842   0.683 -0.0820  0.2512  0.1276
  237SOL    HW1  946   0.789   2.896   0.725 -0.5408  0.9106  0.0369
  237SOL    HW2  947   0.685   2.791   0.755  0.6137 -0.2240  0.1510
  237SOL     MW  948   0.726   2.843   0.698  0.0013  0.0003 -0.0018
  238SOL     OW  949   2.518   0.090   2.923 -0.1648  0.3722 -0.5059
  238SOL    HW1  950   2.539   0.055   2.836  1.6106  0.8158 -0.2984
  238SOL    HW2  951   2.495   0.181   2.908  2.6123  1.2056 -0.3489
  238SOL     MW  952   2.518   0.097   2.910  0.0013  0.0003 -0.0018
  239SOL     OW  953   2.590   1.966   2.517  0.2581 -0.6407 -0.6702
  239SOL    HW1  954   2.503   1.988   2.550  0.6450  0.0158 -0.0913
  239SOL    HW2  955   2.619   2.044   2.470  1.1034 -0.3462  0.3105
  239SOL     MW  956   2.582   1.979   2.515  0.0013  0.0003 -0.0018
  240SOL     OW  957   1.022   0.210   0.183  0.2399 -0.1848  0.2858
  240SOL    HW1  958   1.068   0.171   0.257 -0.5583  0.1278  0.9664
  240SOL    HW2  959   1.087   0.267   0.142  1.0122 -1.1981  0.0820
  240SOL     MW  960   1.036   0.213   0.188  0.0013  0.0003 -0.0018
  241SOL     OW  961   2.071   1.097   0.387 -0.5865  0.5010 -0.3957
  241SOL    HW1  962   2.013   1.032   0.425 -1.1011  0.9680 -0.3760
  241SOL    HW2  963   2.115   1.137   0.462 -0.1938  0.1101 -0.4143
  241SOL     MW  964   2.069   1.094   0.401  0.0013  0.0003 -0.0018
  242SOL     OW  965   0.495   0.197   2.565 -0.0925 -0.0148 -0.2520
  242SOL    HW1  966   0.488   0.160   2.477  0.5314  0.6814 -0.6079
  242SOL    HW2  967   0.532   0.126   2.618  1.7003  0.2640 -1.0611
  242SOL     MW  968   0.499   0.183   2.560  0.0013  0.0003 -0.0018
  243SOL     OW  969   0.979   2.506   0.397 -0.3147  0.3053  0.7784
  243SOL    HW1  970   0.935   2.516   0.312 -1.3928 -0.1592  1.2650
  243SOL    HW2  971   0.985   2.596   0.431  0.1438  0.4957  0.2030
  243SOL     MW  972   0.974   2.519   0.390  0.0013  0.0003 -0.0018
  244SOL     OW  973   0.396   3.019   0.508 -0.0276  0.0098  0.2046
  244SOL    HW1  974   0.409   2.933   0.469 -0.8353 -0.3884  0.7826
  244SOL    HW2  975   0.301   3.034   0.503 -0.3956 -0.6377  3.1428
  244SOL     MW  976   0.386   3.010   0.503  0.0013  0.0003 -0.0018
  245SOL     OW  977   0.516   1.461   2.664 -0.0755  0.1764 -0.9153
  245SOL    HW1  978   0.569   1.388   2.696 -0.9610 -0.2844 -0.4619
  245SOL    HW2  979   0.578   1.534   2.655  0.2464  0.3778  1.9539
  245SOL     MW  980   0.531   1.461   2.667  0.0013  0.0003 -0.0018
  246SOL     OW  981   0.154   0.072   0.584  0.9112  0.4106  0.3901
  246SOL    HW1  982   0.184   0.115   0.504  2.2210 -1.1204  0.0208
  246SOL    HW2  983   0.074   0.027   0.558 -0.1446  2.0270  0.6381
  246SOL     MW  984   0.147   0.072   0.570  0.0013  0.0003 -0.0018
  247SOL     OW  985   2.414   0.627   3.012 -0.1564 -0.1221 -0.1163
  247SOL    HW1  986   2.380   0.715   3.031  0.2015  0.2198 -1.0062
  247SOL    HW2  987   2.338   0.579   2.981  0.1240  0.6570 -2.1475
  247SOL     MW  988   2.400   0.632   3.011  0.0013  0.0003 -0.0018
  248SOL     OW  989   1.583   1.242   2.152 -0.1677 -0.4823  0.2427
  248SOL    HW1  990   1.579   1.204   2.240 -2.1058  0.0912  0.4449
  248SOL    HW2  991   1.544   1.329   2.162  3.7210  1.5729 -0.2623
  248SOL     MW  992   1.577   1.248   2.165  0.0013  0.0003 -0.0018
  249SOL     OW  993   2.301   1.953   0.283 -0.1749  0.1274 -0.3952
  249SOL    HW1  994   2.256   1.942   0.200  0.4837 -0.2007 -0.7140
  249SOL    HW2  995   2.378   2.006   0.263 -0.3252  0.5537  0.1147
  249SOL     MW  996   2.305   1.958   0.270  0.0013  0.0003 -0.0018
  250SOL     OW  997   2.617   2.342   0.293 -0.1556  0.0715  0.3181
  250SOL    HW1  998   2.552   2.406   0.325  0.7297  0.3069  1.7473
  250SOL    HW2  999   2.696   2.394   0.280 -0.0290 -0.3572 -0.6569
  250SOL     MW 1000   2.619   2.357   0.296  0.0013  0.0003 -0.0018
  251SOL     OW 1001   2.803   1.952   1.492 -0.6486 -0.1336  0.0691
  251SOL    HW1 1002   2.819   1.923   1.402  0.6860 -1.0685  0.5856
  251SOL    HW2 1003   2.874   2.014   1.511 -0.0400 -1.0862  0.9697
  251SOL     MW 1004   2.814   1.957   1.483  0.0013  0.0003 -0.0018
  252SOL     OW 1005   1.281   1.924   0.673  0.5281  0.1653 -0.1599
  252SOL    HW1 1006   1.364   1.938   0.719 -0.4539  1.1380  1.4038
  252SOL    HW2 1007   1.255   2.011   0.644 -1.3320  0.3984  1.9398
  252SOL     MW 1008   1.289   1.937   0.675  0.0013  0.0003 -0.0018
  253SOL     OW 1009   2.415   0.004   0.964  0.1520  0.2898  0.3151
  253SOL    HW1 1010   2.449  -0.039   1.043  1.2456  0.3817 -0.0817
  253SOL    HW2 1011   2.372   0.083   0.997  1.6495  0.9559  0.7600
  253SOL     MW 1012   2.414   0.009   0.979  0.0013  0.0003 -0.0018
  254SOL     OW 1013   0.803   2.845   0.227 -0.1999  0.5963  0.0785
  254SOL    HW1 1014   0.891   2.841   0.189 -0.2977  1.0313 -0.1878
  254SOL    HW2 1015   0.776   2.936   0.218 -0.2399  0.7064  1.1568
  254SOL     MW 1016   0.811   2.856   0.221  0.0013  0.0003 -0.0018
  255SOL     OW 1017   2.188   0.864   1.452 -0.0847 -0.0080  0.4346
  255SOL    HW1 1018   2.266   0.916   1.470 -0.3740  0.3648  0.6497
  255SOL    HW2 1019   2.118   0.929   1.445 -0.0637 -0.1558 -1.7745
  255SOL     MW 1020   2.189   0.879   1.454  0.0013  0.0003 -0.0018
  256SOL     OW 1021   2.291   1.281   2.477  0.1666 -0.6286 -0.5726
  256SOL    HW1 1022   2.204   1.290   2.515  0.3636  1.6169 -0.5336
  256SOL    HW2 1023   2.347   1.254   2.550 -0.2694 -0.8456 -0.3168
  256SOL     MW 1024   2.287   1.278   2.491  0.0013  0.0003 -0.0018
  257SOL     OW 1025   0.938   1.874   2.109  0.6166 -0.2450  0.1807
  257SOL    HW1 1026   1.021   1.914   2.137 -0.1257  2.0354 -0.6802
  257SOL    HW2 1027   0.963   1.815   2.038  1.8920 -2.3844  2.2532
  257SOL     MW 1028   0.952   1.871   2.104  0.0013  0.0003 -0.0018
  258SOL     OW 1029   0.655   2.370   0.486  0.0256  0.2283  0.1404
  258SOL    HW1 1030   0.645   2.464   0.466  2.5029  0.5231 -0.0761
  258SOL    HW2 1031   0.599   2.355   0.562  1.0069  2.3567  1.3711
  258SOL     MW 1032   0.647   2.380   0.493  0.0013  0.0003 -0.0018
  259SOL     OW 1033   2.827   0.898   2.594  0.8657  0.0331 -0.3809
  259SOL    HW1 1034   2.818   0.808   2.625  0.1698  0.4299  0.6566
  259SOL    HW2 1035   2.759   0.908   2.528  0.7161 -0.0993 -0.2474
  259SOL     MW 1036   2.817   0.888   2.590  0.0013  0.0003 -0.0018
  260SOL     OW 1037   0.031   0.767   2.820 -0.0081 -0.2834 -0.5083
  260SOL    HW1 1038  -0.043   0.714   2.790 -0.2284 -0.4489  0.3226
  260SOL    HW2 1039   0.089   0.706   2.865 -0.7157  0.3266  1.2871
  260SOL     MW 1040   0.029   0.753   2.822  0.0013  0.0003 -0.0018
  261SOL     OW 1041   1.300   2.127   2.409  0.4992  0.0548 -1.1140
  261SOL    HW1 1042   1.376   2.092   2.455 -1.6037 -0.3413  2.4978
  261SOL    HW2 1043   1.307   2.221   2.419 -0.0492 -0.0354  0.3956
  261SOL     MW 1044   1.310   2.134   2.416  0.0013  0.0003 -0.0018
  262SOL     OW 1045   1.737   1.833   0.281  0.1038 -0.2128 -0.8204
  262SOL    HW1 1046   1.709   1.850   0.191 -1.9769  0.9009 -0.0167
  262SOL    HW2 1047   1.704   1.745   0.301 -1.3933  0.4186 -0.4418
  262SOL     MW 1048   1.729   1.824   0.272  0.0013  0.0003 -0.0018
  263SOL     OW 1049   0.880   2.317   0.992  0.3366  0.4323  0.0809
  263SOL    HW1 1050   0.843   2.393   1.037  0.5409  1.0186 -0.7183
  263SOL    HW2 1051   0.973   2.336   0.987  0.5806 -0.4543  0.9656
  263SOL     MW 1052   0.887   2.330   0.997  0.0013  0.0003 -0.0018
  264SOL     OW 1053   0.072   0.667   1.962 -0.2520  0.4864  0.1066
  264SOL    HW1 1054   0.057   0.734   2.029  3.0686 -0.5254  2.1264
  264SOL    HW2 1055   0.129   0.708   1.898  0.1583  0.1915  0.2773
  264SOL     MW 1056   0.077   0.681   1.963  0.0013  0.0003 -0.0018
  265SOL     OW 1057   1.519   1.115   1.700 -0.2095  0.2465  0.2527
  265SOL    HW1 1058   1.435   1.160   1.696 -0.2678  0.1346  0.2101
  265SOL    HW2 1059   1.558   1.127   1.613 -1.6408 -2.5054 -0.8903
  265SOL     MW 1060   1.513   1.122   1.689  0.0013  0.0003 -0.0018
  266SOL     OW 1061   0.751   1.532   1.093 -0.1414 -0.1611 -0.1051
  266SOL    HW1 1062   0.793   1.604   1.045 -1.1643 -0.2394 -1.1774
  266SOL    HW2 1063   0.666   1.567   1.118  0.1690 -0.3143  1.2111
  266SOL     MW 1064   0.745   1.546   1.090  0.0013  0.0003 -0.0018
  267SOL     OW 1065   2.807   2.376   1.152  0.3191  0.3309  0.1400
  267SOL    HW1 1066   2.820   2.325   1.072  0.8246  3.0860 -1.6863
  267SOL    HW2 1067   2.830   2.316   1.223 -1.9934 -2.8586 -1.5611
  267SOL     MW 1068   2.812   2.362   1.151  0.0013  0.0003 -0.0018
  268SOL     OW 1069   0.144   2.466   3.045 -0.0195  0.3165  0.2740
  268SOL    HW1 1070   0.121   2.553   3.013  0.4974  0.1620 -0.5620
  268SOL    HW2 1071   0.238   2.472   3.064 -0.0191 -0.0094  0.3841
  268SOL     MW 1072   0.153   2.478   3.043  0.0013  0.0003 -0.0018
  269SOL     OW 1073   1.962   3.022   3.050 -0.3549  0.0032  0.4752
  269SOL    HW1 1074   1.935   2.986   3.135 -1.2320 -1.4028 -0.3675
  269SOL    HW2 1075   1.963   2.947   2.991 -1.3423  1.2000 -1.1423
  269SOL     MW 1076   1.959   3.008   3.054  0.0013  0.0003 -0.0018
  270SOL     OW 1077   2.272   0.899   0.321  0.5565 -0.4433 -0.7602
  270SOL    HW1 1078   2.311   0.865   0.402 -1.6239 -2.2766 -0.3978
  270SOL    HW2 1079   2.214   0.969   0.349  1.6929  0.6418 -1.0461
  270SOL     MW 1080   2.270   0.904   0.335  0.0013  0.0003 -0.0018
  271SOL     OW 1081   2.431   2.362   1.970  0.0601  0.5228  0.4215
  271SOL    HW1 1082   2.393   2.281   2.002 -0.5547  0.8844  0.6364
  271SOL    HW2 1083   2.513   2.371   2.018  0.0149  0.1511  0.5692
  271SOL     MW 1084   2.437   2.353   1.980  0.0013  0.0003 -0.0018
  272SOL     OW 1085   1.859   2.589   1.519 -0.2933  0.3716  0.3811
  272SOL    HW1 1086   1.899   2.527   1.581 -1.6156  1.2544  2.2012
  272SOL    HW2 1087   1.802   2.535   1.464  1.5074 -0.5472 -0.6947
  272SOL     MW 1088   1.857   2.574   1.520  0.0013  0.0003 -0.0018
  273SOL     OW 1089   2.164   2.762   1.005  0.3643  0.2033 -0.4976
  273SOL    HW1 1090   2.251   2.741   1.040  0.6066  1.1380 -0.5203
  273SOL    HW2 1091   2.135   2.837   1.056  0.0611  0.6184 -1.2669
  273SOL     MW 1092   2.172   2.769   1.016  0.0013  0.0003 -0.0018
  274SOL     OW 1093   1.127   0.506   2.930 -0.1818  0.4141  0.1801
  274SOL    HW1 1094   1.104   0.421   2.892 -0.8441  0.5776  0.1901
  274SOL    HW2 1095   1.043   0.552   2.936  0.1862  1.1036  0.0854
  274SOL     MW 1096   1.113   0.501   2.926  0.0013  0.0003 -0.0018
  275SOL     OW 1097   1.285   3.077   1.920  0.3458  0.0980  0.6324
  275SOL    HW1 1098   1.216   3.095   1.984 -0.3456  2.6768 -0.6931
  275SOL    HW2 1099   1.337   3.157   1.919  1.0273 -0.3394 -1.1897
  275SOL     MW 1100   1.283   3.090   1.928  0.0013  0.0003 -0.0018
  276SOL     OW 1101   2.547   2.003   1.146  0.7128  0.6775 -0.4138
  276SOL    HW1 1102   2.541   2.091   1.110  1.6579  0.4311 -1.1985
  276SOL    HW2 1103   2.520   2.014   1.238  1.9971  2.0300 -0.1401
  276SOL     MW 1104   2.543   2.016   1.153  0.0013  0.0003 -0.0018
  277SOL     OW 1105   2.693   1.551   1.939 -0.0701  0.2337  0.4908
  277SOL    HW1 1106   2.753   1.580   2.008 -0.6776 -0.2756  1.2502
  277SOL    HW2 1107   2.700   1.456   1.940  1.1204  0.2638 -1.2686
  277SOL     MW 1108   2.702   1.543   1.948  0.0013  0.0003 -0.0018
  278SOL     OW 1109   0.347   1.377   0.072 -0.2306  0.1064  0.6301
  278SOL    HW1 1110   0.266   1.428   0.066 -1.2617 -1.5116 -0.0634
  278SOL    HW2 1111   0.349   1.327  -0.010  1.5940  0.2494  0.5551
  278SOL     MW 1112   0.337   1.377   0.060  0.0013  0.0003 -0.0018
  279SOL     OW 1113   2.607   0.754   2.059  0.2434  0.1724  0.3083
  279SOL    HW1 1114   2.549   0.783   2.128  0.6047  0.9809  0.2827
  279SOL    HW2 1115   2.556   0.763   1.978  0.2652  0.4933  0.3295
  279SOL     MW 1116   2.593   0.759   2.057  0.0013  0.0003 -0.0018
  280SOL     OW 1117   1.379   1.979   3.083 -0.2637  0.0065  0.8541
  280SOL    HW1 1118   1.474   1.975   3.075 -0.3878  0.4536 -1.3184
  280SOL    HW2 1119   1.354   2.061   3.041 -1.7948 -1.4580 -1.3508
  280SOL     MW 1120   1.388   1.989   3.077  0.0013  0.0003 -0.0018
  281SOL     OW 1121   0.039   2.512   2.652  0.3132  0.2300 -0.4045
  281SOL    HW1 1122   0.035   2.440   2.714  1.0517 -0.3659 -1.0312
  281SOL    HW2 1123   0.103   2.572   2.688 -0.8983  1.0078  0.5405
  281SOL     MW 1124   0.046   2.511   2.664  0.0013  0.0003 -0.0018
  282SOL     OW 1125   2.403   1.736   0.439 -0.8604 -0.2499  0.1984
  282SOL    HW1 1126   2.363   1.820   0.414 -0.1137 -0.1196 -0.5704
  282SOL    HW2 1127   2.497   1.752   0.438 -0.6360 -1.4782 -1.3686
  282SOL     MW 1128   2.410   1.749   0.436  0.0013  0.0003 -0.0018
  283SOL     OW 1129   2.851   0.234   1.229 -0.3557  0.6591 -0.0235
  283SOL    HW1 1130   2.923   0.261   1.173 -1.4626  0.0622 -1.8110
  283SOL    HW2 1131   2.781   0.298   1.212 -0.3167  1.1997  1.6371
  283SOL     MW 1132   2.851   0.246   1.220  0.0013  0.0003 -0.0018
  284SOL     OW 1133   0.788   0.360   1.629  0.5624 -0.0228 -0.1966
  284SOL    HW1 1134   0.749   0.400   1.707 -0.7337 -1.4437 -0.0651
  284SOL    HW2 1135   0.856   0.302   1.664 -0.1178 -0.7717 -0.0861
  284SOL     MW 1136   0.792   0.358   1.643  0.0013  0.0003 -0.0018
  285SOL     OW 1137   2.259   0.347   1.730 -0.3376 -0.1563 -0.1379
  285SOL    HW1 1138   2.209   0.288   1.786 -0.8039  0.9655  0.6423
  285SOL    HW2 1139   2.350   0.323   1.745 -0.5602 -1.6257 -0.9164
  285SOL     MW 1140   2.264   0.336   1.739  0.0013  0.0003 -0.0018
  286SOL     OW 1141   2.503   0.421   0.049  0.1369 -0.5824  0.2787
  286SOL    HW1 1142   2.460   0.433   0.134  0.2601 -2.9358  0.7463
  286SOL    HW2 1143   2.475   0.496  -0.003 -0.2256  0.7337  2.2723
  286SOL     MW 1144   2.494   0.432   0.054  0.0013  0.0003 -0.0018
  287SOL     OW 1145   2.711   1.498   0.968 -0.2396 -0.7296  0.3890
  287SOL    HW1 1146   2.774   1.440   0.925  0.6279  0.9253 -0.6827
  287SOL    HW2 1147   2.747   1.513   1.055  0.4731 -0.3891  0.0400
  287SOL     MW 1148   2.724   1.493   0.974  0.0013  0.0003 -0.0018
  288SOL     OW 1149   1.387   2.685   0.422 -0.3371 -0.0196 -0.2215
  288SOL    HW1 1150   1.355   2.595   0.428  1.1659 -0.6022 -0.5158
  288SOL    HW2 1151   1.332   2.726   0.356 -0.6003 -0.9275 -0.5777
  288SOL     MW 1152   1.376   2.679   0.415  0.0013  0.0003 -0.0018
  289SOL     OW 1153   2.763   0.340   0.061  0.1002 -0.3878  0.0206
  289SOL    HW1 1154   2.672   0.370   0.069 -0.0403 -0.8864  0.2975
  289SOL    HW2 1155   2.756   0.247   0.042  0.5662 -0.8515  1.9247
  289SOL     MW 1156   2.750   0.332   0.060  0.0013  0.0003 -0.0018
  290SOL     OW 1157   0.290   0.955   2.974  1.0931  0.0817 -0.0007
  290SOL    HW1 1158   0.337   1.038   2.982  1.7971 -0.4871  2.6885
  290SOL    HW2 1159   0.341   0.893   3.027  0.3166 -1.9785 -1.5090
  290SOL     MW 1160   0.302   0.957   2.982  0.0013  0.0003 -0.0018
  291SOL     OW 1161   1.902   2.778   2.920 -0.5441 -0.3267  0.5990
  291SOL    HW1 1162   1.814   2.814   2.933 -0.0765  0.7030  1.0317
  291SOL    HW2 1163   1.887   2.686   2.898 -1.7263 -0.1792  0.7015
  291SOL     MW 1164   1.888   2.771   2.919  0.0013  0.0003 -0.0018
  292SOL     OW 1165   0.300   2.091   1.154  0.0553  0.1335 -0.9084
  292SOL    HW1 1166   0.262   2.076   1.067  1.5289 -0.2882 -1.5278
  292SOL    HW2 1167   0.372   2.027   1.159  0.6616  0.8758  0.1844
  292SOL     MW 1168   0.304   2.081   1.143  0.0013  0.0003 -0.0018
  293SOL     OW 1169   0.313   1.295   2.902  0.3886 -0.3394 -0.1220
  293SOL    HW1 1170   0.277   1.379   2.871 -0.7474 -0.2498  1.3286
  293SOL    HW2 1171   0.405   1.298   2.875  0.4194  1.4493  0.0230
  293SOL     MW 1172   0.320   1.306   2.894  0.0013  0.0003 -0.0018
  294SOL     OW 1173   2.464   1.412   0.165  0.4731 -0.3505 -0.1563
  294SOL    HW1 1174   2.543   1.367   0.193 -0.2981 -0.7244  1.5277
  294SOL    HW2 1175   2.489   1.504   0.159  1.0262 -0.4563  0.4230
  294SOL     MW 1176   2.477   1.418   0.168  0.0013  0.0003 -0.0018
  295SOL     OW 1177   2.734   0.068   0.302 -0.2250 -0.6870 -0.0590
  295SOL    HW1 1178   2.669   0.058   0.371 -0.0723 -0.1400  0.1674
  295SOL    HW2 1179   2.790  -0.009   0.310 -0.0655 -0.5069  0.5826
  295SOL     MW 1180   2.733   0.057   0.312  0.0013  0.0003 -0.0018
  296SOL     OW 1181   1.765   2.465   0.252  0.0906  0.2761 -0.0102
  296SOL    HW1 1182   1.815   2.484   0.172 -1.8624  0.8634 -1.1866
  296SOL    HW2 1183   1.731   2.377   0.238  0.8403 -0.1574  0.8239
  296SOL     MW 1184   1.767   2.456   0.240  0.0013  0.0003 -0.0018
  297SOL     OW 1185   2.538   2.299   1.120 -0.0274  0.8236 -0.1375
  297SOL    HW1 1186   2.485   2.361   1.170  1.1153  0.9630  0.9590
  297SOL    HW2 1187   2.622   2.344   1.108  0.2257  0.1792 -0.8587
  297SOL     MW 1188   2.542   2.313   1.125  0.0013  0.0003 -0.0018
  298SOL     OW 1189   0.703   0.338   2.059  0.2149 -0.4603 -0.0201
  298SOL    HW1 1190   0.776   0.368   2.114  1.0186 -1.6461 -0.3932
  298SOL    HW2 1191   0.671   0.259   2.104 -0.2854 -0.4170 -0.3010
  298SOL     MW 1192   0.708   0.331   2.072  0.0013  0.0003 -0.0018
  299SOL     OW 1193   0.164   1.862   1.015 -0.4422 -0.0164  0.4160
  299SOL    HW1 1194   0.234   1.798   1.027 -0.3669  0.3557  2.2457
  299SOL    HW2 1195   0.093   1.813   0.973  0.4038 -0.7333 -0.2114
  299SOL     MW 1196   0.164   1.847   1.011  0.0013  0.0003 -0.0018
  300SOL     OW 1197   3.069   1.658   2.315  0.2575  0.3775  0.2558
  300SOL    HW1 1198   3.131   1.597   2.355  0.9212  1.4961  0.9779
  300SOL    HW2 1199   3.000   1.669   2.381 -1.0651 -1.2766 -0.7458
  300SOL     MW 1200   3.068   1.651   2.328  0.0013  0.0003 -0.0018
  301SOL     OW 1201   2.402   2.380   0.065  0.3879 -0.0487 -0.1299
  301SOL    HW1 1202   2.394   2.397   0.159  0.8527  0.8431 -0.2432
  301SOL    HW2 1203   2.333   2.433   0.025  2.2886  2.2630 -0.5430
  301SOL     MW 1204   2.392   2.389   0.072  0.0013  0.0003 -0.0018
  302SOL     OW 1205   0.271   2.734   0.874 -0.5695 -0.2625 -0.3918
  302SOL    HW1 1206   0.301   2.664   0.931 -2.1765  0.0346  0.8969
  302SOL    HW2 1207   0.236   2.689   0.797  0.8273 -0.7005 -0.8084
  302SOL     MW 1208   0.270   2.719   0.871  0.0013  0.0003 -0.0018
  303SOL     OW 1209   0.730   0.068   0.508 -0.0323  1.3002  0.3890
  303SOL    HW1 1210   0.681  -0.010   0.533  0.6442  0.6030 -0.3911
  303SOL    HW2 1211   0.696   0.137   0.564 -1.3656  0.6732  0.3754
  303SOL     MW 1212   0.720   0.067   0.519  0.0013  0.0003 -0.0018
  304SOL     OW 1213   2.458   0.639   1.559 -0.1274 -0.2895  0.2305
  304SOL    HW1 1214   2.373   0.653   1.601 -1.7055 -1.8859 -2.1249
  304SOL    HW2 1215   2.512   0.599   1.627 -1.2375  0.7646  1.7932
  304SOL     MW 1216   2.454   0.635   1.573  0.0013  0.0003 -0.0018
  305SOL     OW 1217   2.572   1.254   1.371 -0.5138  0.0329 -0.3041
  305SOL    HW1 1218   2.483   1.271   1.339  0.1615  3.1703 -0.8964
  305SOL    HW2 1219   2.626   1.256   1.292  0.1404 -1.6219  0.0801
  305SOL     MW 1220   2.567   1.257   1.357  0.0013  0.0003 -0.0018
  306SOL     OW 1221   1.111   0.651   1.606 -0.1455  0.7412  0.2832
  306SOL    HW1 1222   1.179   0.716   1.589 -0.6828  1.8673  2.1270
  306SOL    HW2 1223   1.158   0.568   1.611  0.9883  1.3859  0.7120
  306SOL     MW 1224   1.126   0.649   1.604  0.0013  0.0003 -0.0018
  307SOL     OW 1225   1.237   0.799   2.282  0.1823 -0.2119 -0.9268
  307SOL    HW1 1226   1.292   0.877   2.275 -0.4901  0.2338 -1.3981
  307SOL    HW2 1227   1.198   0.789   2.195  0.1551 -1.0006 -0.8344
  307SOL     MW 1228   1.239   0.808   2.270  0.0013  0.0003 -0.0018
  308SOL     OW 1229   1.590   1.608   1.138  0.7479  0.0822 -0.2725
  308SOL    HW1 1230   1.523   1.541   1.124  2.6817 -1.8558 -0.8649
  308SOL    HW2 1231   1.657   1.588   1.073  1.8547  2.0378  0.1865
  308SOL     MW 1232   1.590   1.597   1.128  0.0013  0.0003 -0.0018
  309SOL     OW 1233   0.832   0.388   0.087 -0.1620  0.2134 -0.0988
  309SOL    HW1 1234   0.877   0.308   0.116  0.8820  0.3083 -1.3777
  309SOL    HW2 1235   0.900   0.441   0.047 -1.6986 -0.7304 -4.5122
  309SOL     MW 1236   0.846   0.384   0.085  0.0013  0.0003 -0.0018
  310SOL     OW 1237   1.761   3.108   0.384 -0.4794 -0.0599 -0.1246
  310SOL    HW1 1238   1.675   3.116   0.424  0.6651 -0.0882  2.5403
  310SOL    HW2 1239   1.818   3.076   0.454  1.9004  0.7562 -1.5439
  310SOL     MW 1240   1.757   3.105   0.398  0.0013  0.0003 -0.0018
  311SOL     OW 1241   1.199   2.933   0.641 -0.5673  0.5144 -0.6312
  311SOL    HW1 1242   1.122   2.942   0.699 -0.2702  3.7095 -0.5419
  311SOL    HW2 1243   1.164   2.893   0.562 -1.4917 -1.6659  0.7696
  311SOL     MW 1244   1.184   2.929   0.639  0.0013  0.0003 -0.0018
  312SOL     OW 1245   0.311   2.129   0.840  0.2359 -0.5720 -0.0443
  312SOL    HW1 1246   0.219   2.120   0.863  0.3159 -1.2294  0.0152
  312SOL    HW2 1247   0.334   2.046   0.798  0.4344  0.1012 -1.3274
  312SOL     MW 1248   0.302   2.118   0.837  0.0013  0.0003 -0.0018
  313SOL     OW 1249   1.000   2.712   2.975  0.2054 -0.6010 -0.5984
  313SOL    HW1 1250   0.906   2.730   2.974  0.3164  0.0077 -0.3098
  313SOL    HW2 1251   1.040   2.794   3.004  0.6998 -1.4191  1.1617
  313SOL     MW 1252   0.993   2.725   2.978  0.0013  0.0003 -0.0018
  314SOL     OW 1253   2.631  -0.003   0.580 -0.0395  0.6064  0.0701
  314SOL    HW1 1254   2.713  -0.015   0.628  0.2939  3.0458  0.2278
  314SOL    HW2 1255   2.585   0.066   0.628 -1.6165  0.1734 -0.7585
  314SOL     MW 1256   2.635   0.004   0.592  0.0013  0.0003 -0.0018
  315SOL     OW 1257   0.829   2.727   2.502  0.8403  0.0865 -0.2299
  315SOL    HW1 1258   0.819   2.765   2.415  0.5272  1.1174  0.2375
  315SOL    HW2 1259   0.921   2.743   2.525  0.9625 -0.3244 -0.4353
  315SOL     MW 1260   0.840   2.734   2.494  0.0013  0.0003 -0.0018
  316SOL     OW 1261   0.955   2.057   1.032  0.1101  0.2673 -0.3209
  316SOL    HW1 1262   0.929   2.148   1.025  0.9117  0.6191  1.0490
  316SOL    HW2 1263   0.996   2.037   0.948 -1.7679  0.5713 -1.3674
  316SOL     MW 1264   0.957   2.066   1.020  0.0013  0.0003 -0.0018
  317SOL     OW 1265   1.286   2.752   0.858 -0.2085 -0.1537 -0.3982
  317SOL    HW1 1266   1.222   2.681   0.848  1.5908 -1.5568 -3.0565
  317SOL    HW2 1267   1.276   2.804   0.778  0.3679  1.0088  0.2621
  317SOL     MW 1268   1.276   2.749   0.846  0.0013  0.0003 -0.0018
  318SOL     OW 1269   2.111   2.321   0.349  0.0848 -0.2451 -0.2357
  318SOL    HW1 1270   2.054   2.393   0.375  1.2521 -0.0994  2.2501
  318SOL    HW2 1271   2.056   2.264   0.295 -1.4674  1.4131 -0.4828
  318SOL     MW 1272   2.097   2.323   0.346  0.0013  0.0003 -0.0018
  319SOL     OW 1273   2.802   1.148   1.224 -0.4551  0.4019 -0.4299
  319SOL    HW1 1274   2.848   1.100   1.155 -0.0269  1.3997 -0.8610
  319SOL    HW2 1275   2.862   1.146   1.299 -0.7273 -0.2924 -0.2181
  319SOL     MW 1276   2.815   1.142   1.225  0.0013  0.0003 -0.0018
  320SOL     OW 1277   0.980   1.166   1.133  0.4387 -0.2008  0.5328
  320SOL    HW1 1278   1.061   1.205   1.101 -0.3579  0.4989 -0.7011
  320SOL    HW2 1279   0.960   1.214   1.213  0.9787 -0.0642  0.5925
  320SOL     MW 1280   0.988   1.177   1.139  0.0013  0.0003 -0.0018
  321SOL     OW 1281   2.586   1.884   3.065 -0.7843 -0.1011  0.3722
  321SOL    HW1 1282   2.562   1.967   3.106  0.9528 -0.0362  1.3906
  321SOL    HW2 1283   2.556   1.818   3.126 -2.3557 -0.2600 -0.5406
  321SOL     MW 1284   2.579   1.887   3.078  0.0013  0.0003 -0.0018
  322SOL     OW 1285   2.297   0.224   0.093 -0.1646 -0.0784  0.3827
  322SOL    HW1 1286   2.369   0.283   0.072 -0.2731 -0.3490 -0.8149
  322SOL    HW2 1287   2.335   0.136   0.086 -0.7104 -0.2403 -0.7247
  322SOL     MW 1288   2.311   0.220   0.090  0.0013  0.0003 -0.0018
  323SOL     OW 1289   1.283   1.283   0.047  0.1607  0.1833  0.0060
  323SOL    HW1 1290   1.238   1.332  -0.022 -2.9816  0.3979  2.0247
  323SOL    HW2 1291   1.371   1.268   0.012 -1.1240  0.5789 -3.8497
  323SOL     MW 1292   1.289   1.288   0.034  0.0013  0.0003 -0.0018
  324SOL     OW 1293   1.175   2.927   3.082  0.0067  0.0008  0.5548
  324SOL    HW1 1294   1.233   2.885   3.019 -1.1106 -0.4023 -0.2532
  324SOL    HW2 1295   1.170   3.018   3.055 -0.5746 -0.2001 -0.0439
  324SOL     MW 1296   1.182   2.933   3.070  0.0013  0.0003 -0.0018
  325SOL     OW 1297   2.725   1.799   1.765 -0.4517  0.0281  0.0967
  325SOL    HW1 1298   2.741   1.711   1.733 -0.9059  0.4808 -1.4970
  325SOL    HW2 1299   2.748   1.856   1.691 -1.6701  1.1387  0.5262
  325SOL     MW 1300   2.730   1.795   1.751  0.0013  0.0003 -0.0018
  326SOL     OW 1301   0.977   0.218   2.873 -0.2120  0.4042  0.9754
  326SOL    HW1 1302   0.894   0.262   2.857 -0.5823 -0.6239 -0.0307
  326SOL    HW2 1303   0.964   0.171   2.956 -0.4163  0.7465  1.1378
  326SOL     MW 1304   0.965   0.217   2.882  0.0013  0.0003 -0.0018
  327SOL     OW 1305   1.605   1.132   1.404  0.3247  0.0545  0.4719
  327SOL    HW1 1306   1.664   1.057   1.398  1.5468  0.9626  0.6752
  327SOL    HW2 1307   1.660   1.203   1.438 -0.8650  0.9672  0.5575
  327SOL     MW 1308   1.620   1.132   1.408  0.0013  0.0003 -0.0018
  328SOL     OW 1309   0.713   2.441   2.219 -0.3885 -0.0872  0.4236
  328SOL    HW1 1310   0.759   2.500   2.159 -0.6070 -0.2914  0.0562
  328SOL    HW2 1311   0.771   2.436   2.295 -0.8679  1.4509  0.9253
  328SOL     MW 1312   0.727   2.448   2.221  0.0013  0.0003 -0.0018
  329SOL     OW 1313   2.213   2.090   0.520 -0.4852  0.4400 -0.4441
  329SOL    HW1 1314   2.210   2.185   0.503  0.6982  0.8436  1.3565
  329SOL    HW2 1315   2.222   2.051   0.433 -0.4864  2.0013 -1.1843
  329SOL     MW 1316   2.214   2.097   0.507  0.0013  0.0003 -0.0018
  330SOL     OW 1317   0.428   1.697   0.216 -0.3636  0.0363 -0.0080
  330SOL    HW1 1318   0.491   1.647   0.269  0.7431  1.6590  0.2702
  330SOL    HW2 1319   0.472   1.780   0.198 -1.6580  0.4393 -1.5224
  330SOL     MW 1320   0.442   1.701   0.221  0.0013  0.0003 -0.0018
  331SOL     OW 1321   3.106   0.444   0.616 -0.1643  0.4050 -0.2399
  331SOL    HW1 1322   3.065   0.377   0.670  3.3870 -1.8370  0.0245
  331SOL    HW2 1323   3.099   0.410   0.526 -2.2303  2.0011 -0.7655
  331SOL     MW 1324   3.100   0.431   0.611  0.0013  0.0003 -0.0018
  332SOL     OW 1325   2.257   1.816   2.020 -0.5571  0.1961  0.1502
  332SOL    HW1 1326   2.334   1.762   2.038 -0.3801 -0.4573 -2.2278
  332SOL    HW2 1327   2.195   1.793   2.089  0.5003 -1.0677  0.7201
  332SOL     MW 1328   2.259   1.806   2.031  0.0013  0.0003 -0.0018
  333SOL     OW 1329   2.021   2.272   1.452  0.0755 -0.3107  0.5716
  333SOL    HW1 1330   2.110   2.242   1.432  0.2042  0.4266 -0.0368
  333SOL    HW2 1331   2.029   2.318   1.535  0.6898  1.4535 -0.4009
  333SOL     MW 1332   2.033   2.274   1.460  0.0013  0.0003 -0.0018
  334SOL     OW 1333   2.163   0.225   2.935  0.1272 -0.0537  0.0344
  334SOL    HW1 1334   2.166   0.315   2.902  0.7956  0.1582  0.6549
  334SOL    HW2 1335   2.225   0.223   3.008  0.6038 -1.1851 -0.3703
  334SOL     MW 1336   2.171   0.236   2.940  0.0013  0.0003 -0.0018
  335SOL     OW 1337   1.561   1.041   1.967  0.1641 -0.0005 -0.6469
  335SOL    HW1 1338   1.561   1.106   2.038  0.8852 -0.2962 -0.3691
  335SOL    HW2 1339   1.549   1.093   1.888 -2.8504  0.1583 -0.2015
  335SOL     MW 1340   1.560   1.056   1.966  0.0013  0.0003 -0.0018
  336SOL     OW 1341   1.474   0.373   2.499 -0.2875 -0.5054  0.0110
  336SOL    HW1 1342   1.415   0.437   2.457 -1.5850 -1.5210  0.2098
  336SOL    HW2 1343   1.506   0.419   2.577  0.5897  0.6857 -1.0005
  336SOL     MW 1344   1.470   0.387   2.504  0.0013  0.0003 -0.0018
  337SOL     OW 1345   2.569   0.667   1.308 -0.6233 -0.2591  0.3369
  337SOL    HW1 1346   2.547   0.673   1.401  1.9614  1.5451  0.9709
  337SOL    HW2 1347   2.565   0.758   1.277  1.5154 -0.3807 -0.4702
  337SOL     MW 1348   2.566   0.680   1.316  0.0013  0.0003 -0.0018
  338SOL     OW 1349   2.409   2.674   1.130 -0.3841  0.1195  0.0953
  338SOL    HW1 1350   2.363   2.602   1.174  0.5677 -1.6792 -1.6954
  338SOL    HW2 1351   2.499   2.642   1.121 -0.2705  0.8962 -2.0428
  338SOL     MW 1352   2.415   2.660   1.135  0.0013  0.0003 -0.0018
  339SOL     OW 1353   2.713   2.715   0.740 -0.0720  0.0150 -0.0797
  339SOL    HW1 1354   2.653   2.787   0.763  0.5488  0.7634 -0.7461
  339SOL    HW2 1355   2.790   2.759   0.704 -0.0332 -1.0218 -1.3206
  339SOL     MW 1356   2.715   2.730   0.739  0.0013  0.0003 -0.0018
  340SOL     OW 1357   1.630   2.513   2.930 -0.9061  0.0100  0.6419
  340SOL    HW1 1358   1.639   2.608   2.921 -1.0499  0.2661  2.6440
  340SOL    HW2 1359   1.540   2.495   2.906 -0.9044  0.3956  0.3375
  340SOL     MW 1360   1.620   2.523   2.926  0.0013  0.0003 -0.0018
  341SOL     OW 1361   1.432   1.239   0.944  0.0132 -0.3291  0.0081
  341SOL    HW1 1362   1.417   1.286   0.862 -1.4467 -0.8553 -0.0633
  341SOL    HW2 1363   1.354   1.184   0.955 -1.3538  1.8884  3.2272
  341SOL     MW 1364   1.420   1.238   0.935  0.0013  0.0003 -0.0018
  342SOL     OW 1365   1.551   0.234   2.263  0.0994 -0.0891  0.1643
  342SOL    HW1 1366   1.598   0.292   2.203  0.5302 -1.0216 -0.4234
  342SOL    HW2 1367   1.568   0.271   2.350 -0.1755  1.0328 -0.2424
  342SOL     MW 1368   1.560   0.246   2.266  0.0013  0.0003 -0.0018
  343SOL     OW 1369   1.508   2.018   2.745 -0.0107 -0.2037  0.2390
  343SOL    HW1 1370   1.570   2.001   2.816 -0.1337  0.9762  0.6443
  343SOL    HW2 1371   1.442   1.949   2.754  0.5693 -0.7265  0.5758
  343SOL     MW 1372   1.508   2.007   2.755  0.0013  0.0003 -0.0018
  344SOL     OW 1373   1.787   2.867   1.549  0.1103 -0.3626 -0.0184
  344SOL    HW1 1374   1.803   2.774   1.534  1.0225 -0.2465  0.1874
  344SOL    HW2 1375   1.865   2.910   1.515 -0.2020  0.3108  0.1120
  344SOL     MW 1376   1.799   2.861   1.543  0.0013  0.0003 -0.0018
  345SOL     OW 1377   2.714   2.216   2.431 -0.1323  0.3341  0.2483
  345SOL    HW1 1378   2.800   2.233   2.392 -0.8681  1.4787 -0.9418
  345SOL    HW2 1379   2.653   2.270   2.381 -1.6963 -1.1277  0.4656
  345SOL     MW 1380   2.717   2.225   2.420  0.0013  0.0003 -0.0018
  346SOL     OW 1381   2.246   2.913   2.306  0.1493 -0.0756 -0.0834
  346SOL    HW1 1382   2.159   2.932   2.342  1.2217  3.7661  0.9660
  346SOL    HW2 1383   2.267   2.990   2.253  2.0496 -1.9442 -2.2680
  346SOL     MW 1384   2.237   2.925   2.304  0.0013  0.0003 -0.0018
  347SOL     OW 1385   2.795   2.462   0.795 -0.1347 -0.0856 -0.5056
  347SOL    HW1 1386   2.767   2.550   0.772 -0.8144 -0.0174  0.5583
  347SOL    HW2 1387   2.716   2.409   0.790  0.0325 -0.3946  0.0419
  347SOL     MW 1388   2.781   2.466   0.791  0.0013  0.0003 -0.0018
  348SOL     OW 1389   2.801   2.724   2.204 -0.5207 -0.1888  0.2525
  348SOL    HW1 1390   2.839   2.639   2.226 -0.7423 -0.1319  0.8893
  348SOL    HW2 1391   2.726   2.733   2.264 -0.2581  0.6284  0.4677
  348SOL     MW 1392   2.796   2.715   2.215  0.0013  0.0003 -0.0018
  349SOL     OW 1393   2.302   1.090   1.897  0.1225 -0.1652 -0.0179
  349SOL    HW1 1394   2.380   1.099   1.951 -1.1695  0.1095  1.8892
  349SOL    HW2 1395   2.316   1.150   1.824  1.1819  0.7721  0.9327
  349SOL     MW 1396   2.313   1.099   1.894  0.0013  0.0003 -0.0018
  350SOL     OW 1397   2.738   1.464   0.018 -0.0020 -0.2834 -0.1532
  350SOL    HW1 1398   2.768   1.552   0.042 -0.8300 -0.6970  2.7784
  350SOL    HW2 1399   2.802   1.405   0.055 -0.3221 -0.9725 -0.6711
  350SOL     MW 1400   2.750   1.468   0.025  0.0013  0.0003 -0.0018
  351SOL     OW 1401   0.633   1.269   0.050  0.1642 -0.4714  0.2965
  351SOL    HW1 1402   0.581   1.286   0.128 -0.1261 -1.4200  0.3180
  351SOL    HW2 1403   0.605   1.183   0.020 -0.0892  0.0733 -1.1453
  351SOL     MW 1404   0.623   1.260   0.056  0.0013  0.0003 -0.0018
  352SOL     OW 1405   0.923   0.236   1.290  0.7467 -0.0433  0.5268
  352SOL    HW1 1406   1.011   0.269   1.271  0.2738  1.3780  0.6874
  352SOL    HW2 1407   0.867   0.275   1.223  0.0503  0.0294  1.1299
  352SOL     MW 1408   0.927   0.245   1.279  0.0013  0.0003 -0.0018
  353SOL     OW 1409   0.875   1.374   1.766 -0.3010 -0.2660  0.7170
  353SOL    HW1 1410   0.812   1.416   1.708 -0.2417 -0.8139  0.2475
  353SOL    HW2 1411   0.960   1.392   1.726 -0.3711 -2.2718 -0.4747
  353SOL     MW 1412   0.878   1.381   1.754  0.0013  0.0003 -0.0018
  354SOL     OW 1413   1.890   2.047   2.833  0.2985 -0.1497  0.2867
  354SOL    HW1 1414   1.968   2.053   2.889  0.2111  0.9662  0.3270
  354SOL    HW2 1415   1.817   2.037   2.893  0.4355 -1.8088  0.2248
  354SOL     MW 1416   1.891   2.047   2.848  0.0013  0.0003 -0.0018
  355SOL     OW 1417   2.999   0.031   0.463  0.3980 -0.5499  0.0129
  355SOL    HW1 1418   3.001  -0.041   0.400 -0.3083 -0.6400  0.0873
  355SOL    HW2 1419   3.037   0.105   0.416  1.8495 -1.1479  0.1831
  355SOL     MW 1420   3.004   0.031   0.449  0.0013  0.0003 -0.0018
  356SOL     OW 1421   2.080   1.536   0.605 -0.7657  0.0195  0.0558
  356SOL    HW1 1422   2.156   1.544   0.662 -0.7634  0.6448 -0.0253
  356SOL    HW2 1423   2.117   1.520   0.518 -0.7807 -1.3501  0.2856
  356SOL     MW 1424   2.094   1.535   0.601  0.0013  0.0003 -0.0018
  357SOL     OW 1425   1.460   0.092   2.514 -0.7125 -0.7251 -0.2477
  357SOL    HW1 1426   1.455   0.187   2.497  2.7484 -0.4029 -0.1211
  357SOL    HW2 1427   1.417   0.053   2.438 -0.5855  0.9234 -1.2305
  357SOL     MW 1428   1.454   0.099   2.502  0.0013  0.0003 -0.0018
  358SOL     OW 1429   1.496   2.400   1.743 -0.3636 -0.6119 -0.0085
  358SOL    HW1 1430   1.547   2.393   1.663 -1.5658 -0.6450 -0.7942
  358SOL    HW2 1431   1.451   2.315   1.750 -0.3354 -0.5785  0.6503
  358SOL     MW 1432   1.497   2.388   1.734  0.0013  0.0003 -0.0018
  359SOL     OW 1433   0.760   0.779   2.796 -0.1875 -0.6541  0.0955
  359SOL    HW1 1434   0.824   0.779   2.725 -0.5473 -0.1097 -0.2355
  359SOL    HW2 1435   0.706   0.701   2.780 -0.6586 -0.1955 -0.5908
  359SOL     MW 1436   0.762   0.769   2.785  0.0013  0.0003 -0.0018
  360SOL     OW 1437   2.697   1.742   2.849 -0.1936  0.7249  0.5103
  360SOL    HW1 1438   2.645   1.807   2.895 -0.3608  1.1749 -0.2941
  360SOL    HW2 1439   2.645   1.719   2.772 -1.3217 -2.2687  2.0307
  360SOL     MW 1440   2.684   1.748   2.845  0.0013  0.0003 -0.0018
  361SOL     OW 1441   0.467   0.114   1.993  0.2431 -0.4250  0.2218
  361SOL    HW1 1442   0.402   0.118   1.923  1.4110  0.3063 -0.8566
  361SOL    HW2 1443   0.436   0.178   2.058 -0.8470 -1.1195  0.4165
  361SOL     MW 1444   0.455   0.123   1.993  0.0013  0.0003 -0.0018
  362SOL     OW 1445   1.184   1.601   1.830  0.5238 -0.2488  0.3378
  362SOL    HW1 1446   1.255   1.650   1.789 -1.3860  2.4112 -0.0820
  362SOL    HW2 1447   1.168   1.527   1.771 -0.1412  1.7816 -2.1957
  362SOL     MW 1448   1.191   1.598   1.817  0.0013  0.0003 -0.0018
  363SOL     OW 1449   1.149   0.413   0.773 -0.2360 -0.6773 -0.1638
  363SOL    HW1 1450   1.191   0.385   0.855 -2.4575 -0.2355  1.2154
  363SOL    HW2 1451   1.062   0.372   0.776 -0.4387 -0.4857 -2.2334
  363SOL     MW 1452   1.143   0.404   0.784  0.0013  0.0003 -0.0018
  364SOL     OW 1453   0.823   1.527   1.366 -0.7311  0.7260 -0.3925
  364SOL    HW1 1454   0.903   1.579   1.365  0.0578 -0.3945  0.9982
  364SOL    HW2 1455   0.787   1.537   1.278  0.6211  1.7161 -0.8691
  364SOL     MW 1456   0.829   1.535   1.355  0.0013  0.0003 -0.0018
  365SOL     OW 1457   2.428   2.911   0.306 -0.1203  0.5649  0.4698
  365SOL    HW1 1458   2.522   2.893   0.303 -0.7140 -3.1855 -1.1816
  365SOL    HW2 1459   2.410   2.954   0.222 -0.1244 -0.6170 -0.1574
  365SOL     MW 1460   2.438   2.915   0.295  0.0013  0.0003 -0.0018
  366SOL     OW 1461   0.889   0.571   1.465  0.0759 -0.1121  0.0911
  366SOL    HW1 1462   0.852   0.494   1.509  1.5467 -0.9908 -0.1213
  366SOL    HW2 1463   0.958   0.602   1.524  1.2697 -0.5927 -0.9923
  366SOL     MW 1464   0.893   0.565   1.478  0.0013  0.0003 -0.0018
  367SOL     OW 1465   2.651   1.392   0.497 -0.8386 -0.6544  0.8544
  367SOL    HW1 1466   2.709   1.316   0.490 -0.1686 -0.1327  0.6622
  367SOL    HW2 1467   2.701   1.456   0.548 -1.1199 -0.0806  0.4218
  367SOL     MW 1468   2.665   1.390   0.503  0.0013  0.0003 -0.0018
  368SOL     OW 1469   1.159   0.841   2.547  0.1002  0.2053 -0.2505
  368SOL    HW1 1470   1.124   0.930   2.554  0.5465  0.3650  0.0226
  368SOL    HW2 1471   1.176   0.829   2.453 -5.3408 -1.7210 -1.3245
  368SOL     MW 1472   1.157   0.851   2.536  0.0013  0.0003 -0.0018
  369SOL     OW 1473   2.244   1.093   2.290  0.7749 -0.2500 -0.9199
  369SOL    HW1 1474   2.316   1.082   2.227  0.7031 -0.0592 -1.0376
  369SOL    HW2 1475   2.279   1.155   2.354  0.4944  0.3462 -1.3287
  369SOL     MW 1476   2.258   1.100   2.290  0.0013  0.0003 -0.0018
  370SOL     OW 1477   2.822   0.735   2.992  0.1009  0.4135  0.1929
  370SOL    HW1 1478   2.847   0.821   2.959  0.2011  0.3561  0.1192
  370SOL    HW2 1479   2.794   0.752   3.082 -0.6195  0.6377 -0.0702
  370SOL     MW 1480   2.822   0.748   3.000  0.0013  0.0003 -0.0018
  371SOL     OW 1481   1.535   0.585   1.662 -0.0180 -0.2583  0.2053
  371SOL    HW1 1482   1.520   0.561   1.754 -1.1524 -0.8015 -0.1091
  371SOL    HW2 1483   1.502   0.675   1.656 -0.9795 -0.6110  0.0804
  371SOL     MW 1484   1.528   0.594   1.673  0.0013  0.0003 -0.0018
  372SOL     OW 1485   1.989   1.939   0.360 -0.5620  1.1412 -0.2168
  372SOL    HW1 1486   1.896   1.914   0.368 -0.4535  0.4275 -1.0124
  372SOL    HW2 1487   1.989   2.014   0.300 -0.7483  2.1422  0.9889
  372SOL     MW 1488   1.977   1.945   0.353  0.0013  0.0003 -0.0018
  373SOL     OW 1489   1.660   1.548   0.386  0.6800 -0.1522  0.2326
  373SOL    HW1 1490   1.567   1.532   0.374  0.4697  1.6668 -1.1576
  373SOL    HW2 1491   1.673   1.554   0.480  0.1358 -4.0313  0.6863
  373SOL     MW 1492   1.650   1.547   0.396  0.0013  0.0003 -0.0018
  374SOL     OW 1493   2.257   2.165   1.704  0.6934  0.4363 -0.2584
  374SOL    HW1 1494   2.349   2.177   1.682  0.3559  3.0529 -0.5717
  374SOL    HW2 1495   2.237   2.235   1.766 -1.4717  1.0861 -1.5695
  374SOL     MW 1496   2.266   2.175   1.709  0.0013  0.0003 -0.0018
  375SOL     OW 1497   0.142   2.067   0.193 -0.1202  0.3761  0.0944
  375SOL    HW1 1498   0.109   2.151   0.161  0.4954  1.3940  1.9934
  375SOL    HW2 1499   0.157   2.081   0.287 -1.4131 -2.2887  0.8119
  375SOL     MW 1500   0.139   2.080   0.201  0.0013  0.0003 -0.0018
  376SOL     OW 1501   1.549   0.587   2.180  0.1793  0.0849  0.1337
  376SOL    HW1 1502   1.636   0.572   2.217 -0.5084  0.3310  1.9177
  376SOL    HW2 1503   1.548   0.679   2.155  1.4796 -0.6038 -2.9188
  376SOL     MW 1504   1.560   0.597   2.181  0.0013  0.0003 -0.0018
  377SOL     OW 1505   1.393   0.590   1.964 -0.0569  0.1627  0.5163
  377SOL    HW1 1506   1.392   0.686   1.966 -0.0059  0.1561  0.9347
  377SOL    HW2 1507   1.421   0.564   2.051  0.4440 -0.2318  0.2422
  377SOL     MW 1508   1.396   0.599   1.975  0.0013  0.0003 -0.0018
  378SOL     OW 1509   0.475   1.191   0.266 -0.0262 -0.3062 -0.4331
  378SOL    HW1 1510   0.521   1.227   0.342  2.0059  0.6851 -2.0252
  378SOL    HW2 1511   0.422   1.264   0.233 -1.1532 -0.8276  0.1656
  378SOL     MW 1512   0.474   1.205   0.272  0.0013  0.0003 -0.0018
  379SOL     OW 1513   1.277   2.142   0.312  0.9764 -0.3174  0.2166
  379SOL    HW1 1514   1.253   2.058   0.272  0.9905 -0.1557 -0.1307
  379SOL    HW2 1515   1.242   2.208   0.252 -0.2588 -0.0506  1.1769
  379SOL     MW 1516   1.269   2.139   0.299  0.0013  0.0003 -0.0018
  380SOL     OW 1517   0.504   2.222   2.131 -0.0177  0.0763  0.1384
  380SOL    HW1 1518   0.593   2.189   2.144 -0.1556 -1.1938 -1.7230
  380SOL    HW2 1519   0.510   2.279   2.055 -0.8586 -0.3979 -0.3016
  380SOL     MW 1520   0.516   2.225   2.123  0.0013  0.0003 -0.0018
  381SOL     OW 1521   1.025   2.309   1.376 -0.0140  0.3580 -0.0163
  381SOL    HW1 1522   0.934   2.339   1.381  0.2991  1.4014 -0.3463
  381SOL    HW2 1523   1.045   2.281   1.466 -0.1220  1.7815  0.4836
  381SOL     MW 1524   1.016   2.309   1.388  0.0013  0.0003 -0.0018
  382SOL     OW 1525   1.918   2.721   1.212  0.1765  0.6993 -0.1846
  382SOL    HW1 1526   1.938   2.628   1.218 -3.1792 -0.1150  0.3324
  382SOL    HW2 1527   1.945   2.757   1.297  0.0206 -0.1366  0.2283
  382SOL     MW 1528   1.924   2.714   1.224  0.0013  0.0003 -0.0018
  383SOL     OW 1529   1.212   0.092   2.994 -0.2040  0.1054  0.2461
  383SOL    HW1 1530   1.283   0.140   3.038 -0.6692  1.4341 -0.4005
  383SOL    HW2 1531   1.199   0.140   2.912 -0.0119 -1.7487 -0.9168
  383SOL     MW 1532   1.220   0.105   2.989  0.0013  0.0003 -0.0018
  384SOL     OW 1533   3.041   1.568   3.010  0.1876 -0.1794  0.0329
  384SOL    HW1 1534   3.118   1.622   3.027 -0.3437  0.2325  1.2877
  384SOL    HW2 1535   2.968   1.619   3.045 -0.7005 -0.4479 -1.3767
  384SOL     MW 1536   3.042   1.581   3.017  0.0013  0.0003 -0.0018
  385SOL     OW 1537   1.244   2.768   1.337  0.3534 -0.5753 -0.6516
  385SOL    HW1 1538   1.198   2.831   1.391  1.8899  0.4510 -0.4906
  385SOL    HW2 1539   1.253   2.811   1.252  2.3124 -0.1018 -0.2482
  385SOL     MW 1540   1.240   2.781   1.333  0.0013  0.0003 -0.0018
  386SOL     OW 1541   2.528   0.147   1.370 -0.1801 -0.0496 -0.1859
  386SOL    HW1 1542   2.556   0.056   1.377  0.0327 -0.1324 -1.8475
  386SOL    HW2 1543   2.577   0.192   1.439  1.8203 -0.7294 -1.0813
  386SOL     MW 1544   2.538   0.141   1.380  0.0013  0.0003 -0.0018
  387SOL     OW 1545   2.019   2.464   1.268 -0.0121 -0.2579 -0.2995
  387SOL    HW1 1546   2.009   2.406   1.192  0.4369 -0.9607  0.1706
  387SOL    HW2 1547   2.014   2.405   1.343 -1.9689  0.5887  0.3115
  387SOL     MW 1548   2.017   2.449   1.268  0.0013  0.0003 -0.0018
  388SOL     OW 1549   2.932   2.809   3.055 -0.4237  0.1803  0.1473
  388SOL    HW1 1550   3.023   2.779   3.057 -0.7210 -0.7512  1.2339
  388SOL    HW2 1551   2.937   2.903   3.036  0.6141 -0.2788 -2.1603
  388SOL     MW 1552   2.944   2.817   3.053  0.0013  0.0003 -0.0018
  389SOL     OW 1553   0.561   1.365   1.040  0.8547 -0.0108  0.3552
  389SOL    HW1 1554   0.633   1.427   1.052  0.9804 -0.1934  0.5400
  389SOL    HW2 1555   0.524   1.354   1.128 -1.2197  2.2710 -0.1106
  389SOL     MW 1556   0.565   1.372   1.053  0.0013  0.0003 -0.0018
  390SOL     OW 1557   0.541   1.206   2.782 -0.0175  0.1077  0.0138
  390SOL    HW1 1558   0.512   1.177   2.695 -1.3933  1.1321  0.1025
  390SOL    HW2 1559   0.599   1.136   2.812 -0.8929 -1.1201 -1.0144
  390SOL     MW 1560   0.544   1.193   2.775  0.0013  0.0003 -0.0018
  391SOL     OW 1561   0.702   2.538   2.983 -0.0517 -0.1153 -0.3846
  391SOL    HW1 1562   0.685   2.502   2.896 -2.2846 -0.2847  0.0452
  391SOL    HW2 1563   0.699   2.633   2.971  2.5307 -0.0488 -0.9430
  391SOL     MW 1564   0.699   2.546   2.970  0.0013  0.0003 -0.0018
  392SOL     OW 1565   1.157   0.241   0.436  0.0147 -0.4334 -0.0756
  392SOL    HW1 1566   1.205   0.319   0.462 -0.4163 -0.2665  0.2347
  392SOL    HW2 1567   1.142   0.194   0.518  0.2640 -0.8358 -0.2596
  392SOL     MW 1568   1.161   0.245   0.450  0.0013  0.0003 -0.0018
  393SOL     OW 1569   1.292   0.613   1.197  0.4347 -0.2791 -0.0437
  393SOL    HW1 1570   1.344   0.694   1.198  0.1485 -0.0358 -1.8671
  393SOL    HW2 1571   1.331   0.559   1.266  1.1474  1.0884  0.6716
  393SOL     MW 1572   1.304   0.617   1.206  0.0013  0.0003 -0.0018
  394SOL     OW 1573   0.650   0.134   2.223  0.4499  0.1977  0.4228
  394SOL    HW1 1574   0.729   0.091   2.257  0.0579 -0.9063 -0.0278
  394SOL    HW2 1575   0.590   0.062   2.205  0.2180  0.8364 -1.5357
  394SOL     MW 1576   0.653   0.119   2.225  0.0013  0.0003 -0.0018
  395SOL     OW 1577   0.505   0.344   1.366  0.5272 -0.0627  0.2272
  395SOL    HW1 1578   0.469   0.309   1.284  0.0908  1.4053 -0.2310
  395SOL    HW2 1579   0.552   0.270   1.404 -1.9725 -1.7582  0.2797
  395SOL     MW 1580   0.506   0.330   1.360  0.0013  0.0003 -0.0018
  396SOL     OW 1581   0.630   2.696   0.910 -0.0066 -0.0394  0.8745
  396SOL    HW1 1582   0.699   2.664   0.968 -1.8788 -3.1196  1.6232
  396SOL    HW2 1583   0.554   2.705   0.966 -0.6182  2.0474 -0.1830
  396SOL     MW 1584   0.629   2.693   0.924  0.0013  0.0003 -0.0018
  397SOL     OW 1585   2.052   2.784   0.359 -0.2103  0.5402 -0.1894
  397SOL    HW1 1586   2.045   2.695   0.393 -2.4028  0.6081 -0.3326
  397SOL    HW2 1587   2.104   2.831   0.424  0.1848 -0.6009  0.3480
  397SOL     MW 1588   2.058   2.778   0.372  0.0013  0.0003 -0.0018
  398SOL     OW 1589   0.258   0.010   1.800  0.1016 -0.1976 -0.1633
  398SOL    HW1 1590   0.224   0.076   1.740  3.5774  1.6994 -0.2917
  398SOL    HW2 1591   0.317  -0.044   1.747  0.4484 -0.8076  0.8014
  398SOL     MW 1592   0.261   0.011   1.786  0.0013  0.0003 -0.0018
  399SOL     OW 1593   2.727   0.753   0.147 -0.1822  0.1404 -0.0358
  399SOL    HW1 1594   2.676   0.686   0.193  0.2437  0.3824  0.8160
  399SOL    HW2 1595   2.662   0.817   0.119 -0.4729 -0.0954  0.0903
  399SOL     MW 1596   2.712   0.752   0.150  0.0013  0.0003 -0.0018
  400SOL     OW 1597   3.090   1.728   2.785 -0.3642 -0.0108  0.2782
  400SOL    HW1 1598   3.048   1.666   2.845 -2.2514  0.2087 -0.7610
  400SOL    HW2 1599   3.026   1.798   2.773  1.0654  1.3172  0.1069
  400SOL     MW 1600   3.077   1.729   2.791  0.0013  0.0003 -0.0018
  401SOL     OW 1601   0.262   2.870   2.043 -0.2981  0.0521  0.4970
  401SOL    HW1 1602   0.174   2.890   2.076  0.1001  0.7056  1.1964
  401SOL    HW2 1603   0.257   2.778   2.016 -1.4137  0.3031 -0.2178
  401SOL     MW 1604   0.250   2.861   2.044  0.0013  0.0003 -0.0018
  402SOL     OW 1605   2.609   2.774   2.399  0.0510  0.4963 -0.2244
  402SOL    HW1 1606   2.623   2.712   2.471 -2.8687 -0.3749 -0.3040
  402SOL    HW2 1607   2.564   2.848   2.439 -2.2752 -0.3141 -1.1781
  402SOL     MW 1608   2.605   2.776   2.413  0.0013  0.0003 -0.0018
  403SOL     OW 1609   0.553   2.306   1.241 -0.5487 -0.2123 -0.2076
  403SOL    HW1 1610   0.595   2.224   1.266  1.4644  0.5287 -0.9822
  403SOL    HW2 1611   0.538   2.298   1.147 -2.7251 -0.6650  0.1222
  403SOL     MW 1612   0.556   2.294   1.233  0.0013  0.0003 -0.0018
  404SOL     OW 1613   2.781   0.336   0.338 -0.0215 -0.1531  0.0589
  404SOL    HW1 1614   2.762   0.242   0.339 -0.0388 -0.1453  0.7179
  404SOL    HW2 1615   2.760   0.364   0.249 -2.3210 -0.3157  0.4955
  404SOL     MW 1616   2.776   0.328   0.327  0.0013  0.0003 -0.0018
  405SOL     OW 1617   2.964   2.203   2.341 -0.5536 -0.1304 -0.2216
  405SOL    HW1 1618   2.965   2.120   2.388 -0.2299 -0.3479 -0.6022
  405SOL    HW2 1619   3.050   2.241   2.357 -0.2283 -0.4643 -1.0656
  405SOL     MW 1620   2.975   2.197   2.349  0.0013  0.0003 -0.0018
  406SOL     OW 1621   1.563   0.928   0.392 -0.2664  0.3345  0.0461
  406SOL    HW1 1622   1.545   0.954   0.482  1.3552  0.5674  0.3337
  406SOL    HW2 1623   1.557   1.009   0.342 -1.0043  0.2331 -0.0366
  406SOL     MW 1624   1.560   0.942   0.397  0.0013  0.0003 -0.0018
  407SOL     OW 1625   2.259   2.158   2.077 -0.2624 -0.2477  0.3633
  407SOL    HW1 1626   2.184   2.104   2.054  0.6209 -1.1560 -0.4896
  407SOL    HW2 1627   2.297   2.116   2.154  1.0411 -1.5453 -0.9103
  407SOL     MW 1628   2.254   2.146   2.084  0.0013  0.0003 -0.0018
  408SOL     OW 1629  -0.023   2.001   1.170  0.6033 -0.0856 -0.2673
  408SOL    HW1 1630   0.028   2.027   1.247 -0.6675 -0.9007  0.8943
  408SOL    HW2 1631   0.038   1.948   1.119  1.5266  0.6218  0.0699
  408SOL     MW 1632  -0.008   1.997   1.173  0.0013  0.0003 -0.0018
  409SOL     OW 1633   1.839   0.646   0.289  0.0470  0.6506  0.3371
  409SOL    HW1 1634   1.933   0.663   0.283  0.4033 -1.0755  0.5331
  409SOL    HW2 1635   1.810   0.641   0.198  0.5895 -0.9377  0.2286
  409SOL     MW 1636   1.847   0.648   0.277  0.0013  0.0003 -0.0018
  410SOL     OW 1637   1.383   2.841   1.961  0.0454  0.2730 -0.1107
  410SOL    HW1 1638   1.406   2.801   1.877  0.1442  0.7676 -0.3228
  410SOL    HW2 1639   1.352   2.928   1.938 -1.0913 -0.0205  0.2682
  410SOL     MW 1640   1.382   2.847   1.947  0.0013  0.0003 -0.0018
  411SOL     OW 1641   1.562   2.645   0.193 -1.0940  0.2706 -0.3651
  411SOL    HW1 1642   1.519   2.688   0.267 -0.4916  0.1731  0.0448
  411SOL    HW2 1643   1.634   2.595   0.233  0.4336  1.7285 -1.2024
  411SOL     MW 1644   1.566   2.644   0.208  0.0013  0.0003 -0.0018
  412SOL     OW 1645   3.097   1.354   2.575 -0.2237 -0.2787  0.2589
  412SOL    HW1 1646   3.040   1.294   2.527  0.7470 -1.2910  0.3301
  412SOL    HW2 1647   3.047   1.435   2.581 -0.5442 -0.2512 -2.0936
  412SOL     MW 1648   3.084   1.357   2.570  0.0013  0.0003 -0.0018
  413SOL     OW 1649   0.010   1.356   1.400 -0.4670  0.5243  0.1919
  413SOL    HW1 1650   0.046   1.439   1.369 -1.1200  1.0825  0.8895
  413SOL    HW2 1651  -0.012   1.373   1.492 -2.2025  0.1094 -0.1220
  413SOL     MW 1652   0.012   1.369   1.408  0.0013  0.0003 -0.0018
  414SOL     OW 1653   2.404   1.015   1.507 -0.1851  0.6113  0.1486
  414SOL    HW1 1654   2.500   1.005   1.511 -0.2630 -0.2073  0.0390
  414SOL    HW2 1655   2.388   1.102   1.544  0.5521  0.4985  0.7638
  414SOL     MW 1656   2.415   1.025   1.513  0.0013  0.0003 -0.0018
  415SOL     OW 1657   2.623   2.990   1.370  0.2110 -0.1111  0.3078
  415SOL    HW1 1658   2.543   2.946   1.341 -0.2658  1.7799 -1.5110
  415SOL    HW2 1659   2.693   2.947   1.321 -0.2418  0.9899 -1.3954
  415SOL     MW 1660   2.621   2.979   1.360  0.0013  0.0003 -0.0018
  416SOL     OW 1661   1.704   3.034   2.372  0.0313  0.0848  0.3605
  416SOL    HW1 1662   1.651   2.989   2.306 -0.5880 -1.0283  1.5604
  416SOL    HW2 1663   1.671   3.123   2.373  0.4651  0.2934 -1.2338
  416SOL     MW 1664   1.693   3.040   2.364  0.0013  0.0003 -0.0018
  417SOL     OW 1665   2.328   0.851   2.643  0.5082 -0.0691 -0.2285
  417SOL    HW1 1666   2.385   0.927   2.649 -1.5659  1.4538  3.7055
  417SOL    HW2 1667   2.257   0.878   2.585 -0.2609  1.1287  1.2110
  417SOL     MW 1668   2.326   0.864   2.636  0.0013  0.0003 -0.0018
  418SOL     OW 1669   2.315   1.247   0.452 -0.0195 -0.6164 -0.3531
  418SOL    HW1 1670   2.296   1.336   0.422 -5.7105 -1.0511  0.8976
  418SOL    HW2 1671   2.350   1.259   0.541  0.3324  0.3484 -0.6094
  418SOL     MW 1672   2.317   1.260   0.460  0.0013  0.0003 -0.0018
  419SOL     OW 1673   0.102   2.629   2.330  0.1182  0.3100 -0.0097
  419SOL    HW1 1674   0.180   2.661   2.376  0.4881 -0.7854  0.1484
  419SOL    HW2 1675   0.078   2.548   2.376 -1.8321  1.2117  0.7206
  419SOL     MW 1676   0.109   2.623   2.342  0.0013  0.0003 -0.0018
  420SOL     OW 1677   0.736   3.044   2.422  0.6241  0.6492  0.2924
  420SOL    HW1 1678   0.671   3.047   2.493  0.9660  1.4031  0.5942
  420SOL    HW2 1679   0.717   2.963   2.375  1.3552 -0.6808  2.1633
  420SOL     MW 1680   0.725   3.034   2.425  0.0013  0.0003 -0.0018
  421SOL     OW 1681   2.090   1.579   1.438 -0.0554 -0.3870 -0.0470
  421SOL    HW1 1682   2.134   1.650   1.392 -0.7484 -0.5458 -0.9841
  421SOL    HW2 1683   2.007   1.618   1.468  0.7126 -0.0543  1.8016
  421SOL     MW 1684   2.085   1.593   1.436  0.0013  0.0003 -0.0018
  422SOL     OW 1685   2.720   0.453   0.650 -0.3094 -0.4711  0.1728
  422SOL    HW1 1686   2.705   0.375   0.597 -0.2366  0.2861 -0.9999
  422SOL    HW2 1687   2.800   0.435   0.699  0.3384 -0.6803 -0.9570
  422SOL     MW 1688   2.728   0.441   0.650  0.0013  0.0003 -0.0018
  423SOL     OW 1689   0.657   2.827   2.295  0.9711 -0.1883 -0.0298
  423SOL    HW1 1690   0.592   2.855   2.231  1.5118  0.7412 -0.2042
  423SOL    HW2 1691   0.618   2.752   2.339 -0.8602  1.1847  0.8612
  423SOL     MW 1692   0.644   2.821   2.293  0.0013  0.0003 -0.0018
  424SOL     OW 1693   2.766   2.643   0.101  0.0650 -0.0849  0.3260
  424SOL    HW1 1694   2.671   2.635   0.101  0.1408 -1.4503 -0.5821
  424SOL    HW2 1695   2.787   2.683   0.016  0.3675 -1.4439 -0.2680
  424SOL     MW 1696   2.757   2.647   0.090  0.0013  0.0003 -0.0018
  425SOL     OW 1697   0.528   2.326   2.467  0.3475  0.3779 -0.6353
  425SOL    HW1 1698   0.584   2.290   2.398  1.6859  0.4761  0.3740
  425SOL    HW2 1699   0.514   2.253   2.527 -0.9174  0.2585 -1.0494
  425SOL     MW 1700   0.533   2.312   2.465  0.0013  0.0003 -0.0018
  426SOL     OW 1701   2.638   2.532   0.512  0.0090 -0.6666  0.3394
  426SOL    HW1 1702   2.632   2.439   0.534 -0.5922 -1.0970 -1.4571
  426SOL    HW2 1703   2.553   2.568   0.536 -0.1376 -0.8238  0.0661
  426SOL     MW 1704   2.627   2.525   0.518  0.0013  0.0003 -0.0018
  427SOL     OW 1705   1.986   2.580   0.925 -0.1148  0.0189  0.0446
  427SOL    HW1 1706   1.899   2.621   0.932  0.2019  0.5759  0.7375
  427SOL    HW2 1707   2.046   2.643   0.964  0.7551  0.0753 -1.3218
  427SOL     MW 1708   1.982   2.593   0.931  0.0013  0.0003 -0.0018
  428SOL     OW 1709   1.074   1.629   1.362  0.4964 -0.0069  0.1481
  428SOL    HW1 1710   1.117   1.671   1.436 -0.8495 -0.0481  0.9754
  428SOL    HW2 1711   1.070   1.697   1.295 -0.1893  0.7070  0.8864
  428SOL     MW 1712   1.079   1.643   1.363  0.0013  0.0003 -0.0018
  429SOL     OW 1713   0.785   2.122   0.485 -0.5695  0.1332 -0.1490
  429SOL    HW1 1714   0.871   2.157   0.460  0.1384 -0.4952  1.3495
  429SOL    HW2 1715   0.737   2.199   0.516 -0.2561  0.3432 -0.1709
  429SOL     MW 1716   0.790   2.136   0.486  0.0013  0.0003 -0.0018
  430SOL     OW 1717   1.307   0.140   0.724  1.1102  0.0596  0.5265
  430SOL    HW1 1718   1.353   0.217   0.691  1.9053 -0.9350 -0.7696
  430SOL    HW2 1719   1.366   0.067   0.708 -0.4157 -1.1068 -0.1100
  430SOL     MW 1720   1.320   0.141   0.718  0.0013  0.0003 -0.0018
  431SOL     OW 1721   0.645   2.375   1.629  1.0284  0.1398  0.9958
  431SOL    HW1 1722   0.662   2.281   1.632  3.3983  0.5341  2.2375
  431SOL    HW2 1723   0.688   2.410   1.707  0.3541  2.2783  0.4825
  431SOL     MW 1724   0.653   2.367   1.639  0.0013  0.0003 -0.0018
  432SOL     OW 1725   2.093   1.018   0.705 -0.3186  0.1342 -0.3822
  432SOL    HW1 1726   2.079   1.110   0.727 -0.5561  0.1377 -0.5402
  432SOL    HW2 1727   2.186   1.003   0.719 -0.0042  0.7585 -1.6724
  432SOL     MW 1728   2.103   1.028   0.710  0.0013  0.0003 -0.0018
  433SOL     OW 1729   1.968   1.512   2.512 -0.4471 -0.0759 -0.0546
  433SOL    HW1 1730   1.894   1.470   2.554 -1.0925  0.5929 -0.4969
  433SOL    HW2 1731   1.936   1.598   2.486  0.5132  0.2660 -0.1680
  433SOL     MW 1732   1.955   1.518   2.514  0.0013  0.0003 -0.0018
  434SOL     OW 1733   1.953   0.967   2.838 -0.2103  0.0194  0.3117
  434SOL    HW1 1734   2.044   0.975   2.869 -0.8319 -0.6845  2.4640
  434SOL    HW2 1735   1.906   1.036   2.885 -1.2304 -1.1794  1.1069
  434SOL     MW 1736   1.959   0.977   2.848  0.0013  0.0003 -0.0018
  435SOL     OW 1737   1.521  -0.019   1.444  0.1135 -0.1783 -0.3142
  435SOL    HW1 1738   1.588   0.035   1.485 -0.4368 -0.3559  0.8842
  435SOL    HW2 1739   1.476   0.039   1.383 -0.1199  0.5685  0.5583
  435SOL     MW 1740   1.524  -0.005   1.441  0.0013  0.0003 -0.0018
  436SOL     OW 1741   0.174   2.812   0.362 -0.0222 -0.3266 -0.0588
  436SOL    HW1 1742   0.229   2.747   0.318  0.7349  0.3573 -0.1457
  436SOL    HW2 1743   0.095   2.764   0.386  0.0416 -1.0070 -1.1247
  436SOL     MW 1744   0.171   2.798   0.359  0.0013  0.0003 -0.0018
  437SOL     OW 1745   2.243   1.521   0.398 -0.3104 -0.3056 -0.7130
  437SOL    HW1 1746   2.187   1.557   0.329 -1.0137  0.1662  0.1001
  437SOL    HW2 1747   2.317   1.581   0.403  0.9967 -1.6040 -2.6750
  437SOL     MW 1748   2.245   1.533   0.389  0.0013  0.0003 -0.0018
  438SOL     OW 1749   0.493   0.458   2.340  0.1991 -0.2580 -0.1865
  438SOL    HW1 1750   0.456   0.486   2.424  1.5697 -0.7630  0.6236
  438SOL    HW2 1751   0.520   0.540   2.298  0.9166 -0.0954  0.5651
  438SOL     MW 1752   0.492   0.472   2.345  0.0013  0.0003 -0.0018
  439SOL     OW 1753   2.266   0.669   2.356 -0.0600  0.7162  0.0542
  439SOL    HW1 1754   2.236   0.657   2.267 -0.5194  1.7193  0.0690
  439SOL    HW2 1755   2.212   0.740   2.391 -0.4645 -0.2170  1.4031
  439SOL     MW 1756   2.256   0.676   2.349  0.0013  0.0003 -0.0018
  440SOL     OW 1757   2.019   0.668   2.575  0.0055  0.4584 -0.2193
  440SOL    HW1 1758   2.034   0.753   2.534  1.8719  0.4006  0.2738
  440SOL    HW2 1759   1.979   0.689   2.660 -0.1615  0.7994 -0.3790
  440SOL     MW 1760   2.016   0.681   2.581  0.0013  0.0003 -0.0018
  441SOL     OW 1761   2.716   0.027   2.156  0.2083 -0.2813 -0.1421
  441SOL    HW1 1762   2.795   0.028   2.102 -0.0881 -1.4046 -0.6259
  441SOL    HW2 1763   2.652  -0.022   2.104 -0.3298 -0.7169  0.9060
  441SOL     MW 1764   2.718   0.021   2.142  0.0013  0.0003 -0.0018
  442SOL     OW 1765   2.796   1.771   0.901  0.0822  0.1065  0.2779
  442SOL    HW1 1766   2.749   1.688   0.910  0.6288 -0.5135 -1.9835
  442SOL    HW2 1767   2.727   1.835   0.886 -0.2466 -0.1604  0.6110
  442SOL     MW 1768   2.781   1.769   0.900  0.0013  0.0003 -0.0018
  443SOL     OW 1769   0.775   0.728   0.141  0.1681 -0.0981 -0.5274
  443SOL    HW1 1770   0.719   0.651   0.146 -0.5396  0.4278 -0.1566
  443SOL    HW2 1771   0.815   0.723   0.054 -0.6999 -0.3165 -0.9286
  443SOL     MW 1772   0.773   0.718   0.130  0.0013  0.0003 -0.0018
  444SOL     OW 1773   1.388   2.480   2.808 -0.3400  1.0224  0.3301
  444SOL    HW1 1774   1.404   2.516   2.721 -0.9334  2.3000  0.7262
  444SOL    HW2 1775   1.293   2.486   2.820 -0.3939 -0.1782  0.6420
  444SOL     MW 1776   1.378   2.485   2.799  0.0013  0.0003 -0.0018
  445SOL     OW 1777   0.753   0.024   0.210  0.3298  0.0590  0.2080
  445SOL    HW1 1778   0.789   0.091   0.268  0.4455 -0.0542  0.2687
  445SOL    HW2 1779   0.658   0.032   0.219  0.2581  1.7366 -1.4926
  445SOL     MW 1780   0.746   0.033   0.218  0.0013  0.0003 -0.0018
  446SOL     OW 1781   0.152   1.842   2.580 -0.0153 -0.1286 -0.3336
  446SOL    HW1 1782   0.085   1.787   2.620 -0.1075 -1.9219 -2.7347
  446SOL    HW2 1783   0.126   1.931   2.600 -1.7353 -0.8562  0.8687
  446SOL     MW 1784   0.140   1.846   2.588  0.0013  0.0003 -0.0018
  447SOL     OW 1785   2.595   0.573   0.320 -0.6706  0.0617 -0.2237
  447SOL    HW1 1786   2.631   0.486   0.337  2.5874  1.0763 -1.2424
  447SOL    HW2 1787   2.603   0.619   0.404  0.6619  0.3316 -0.4846
  447SOL     MW 1788   2.600   0.567   0.333  0.0013  0.0003 -0.0018
  448SOL     OW 1789   0.440   1.321   1.536 -0.0973 -0.2315  0.0027
  448SOL    HW1 1790   0.519   1.370   1.555  0.3875 -0.6261 -0.8885
  448SOL    HW2 1791   0.451   1.238   1.583  1.5698 -1.6302 -2.5528
  448SOL     MW 1792   0.452   1.316   1.544  0.0013  0.0003 -0.0018
  449SOL     OW 1793   2.559   2.888   0.887 -0.5340  0.2819  0.4618
  449SOL    HW1 1794   2.626   2.884   0.954  0.1750  1.8459 -0.0956
  449SOL    HW2 1795   2.499   2.957   0.917 -1.1190 -0.1266  0.2660
  449SOL     MW 1796   2.560   2.897   0.899  0.0013  0.0003 -0.0018
  450SOL     OW 1797   2.571   0.281   2.064 -0.5210  0.0334  0.1932
  450SOL    HW1 1798   2.532   0.271   1.977  0.2741 -0.6385 -0.0921
  450SOL    HW2 1799   2.555   0.198   2.107 -1.2313  0.4919  0.8320
  450SOL     MW 1800   2.564   0.269   2.058  0.0013  0.0003 -0.0018
  451SOL     OW 1801   0.532   0.926   1.042 -0.4921  0.2873  0.4005
  451SOL    HW1 1802   0.573   0.909   1.127 -1.0224  0.9398  0.8043
  451SOL    HW2 1803   0.477   0.849   1.025  0.3365 -0.2660  0.1958
  451SOL     MW 1804   0.530   0.914   1.051  0.0013  0.0003 -0.0018
  452SOL     OW 1805   0.048   2.423   1.605 -0.2145  0.0833 -0.4965
  452SOL    HW1 1806   0.042   2.412   1.700 -3.7650 -2.3583 -0.8089
  452SOL    HW2 1807   0.014   2.510   1.588  1.1159  0.8250  0.4319
  452SOL     MW 1808   0.043   2.433   1.615  0.0013  0.0003 -0.0018
  453SOL     OW 1809   1.927   0.839   0.600 -0.3539 -0.0408  0.0068
  453SOL    HW1 1810   1.871   0.808   0.672  0.5647 -1.4744  0.1462
  453SOL    HW2 1811   1.984   0.904   0.640 -1.1703  0.6344  0.1065
  453SOL     MW 1812   1.927   0.843   0.615  0.0013  0.0003 -0.0018
  454SOL     OW 1813   1.802   0.237   2.476  0.2600 -0.0932  0.6465
  454SOL    HW1 1814   1.821   0.306   2.540 -2.7918 -1.0433  2.7848
  454SOL    HW2 1815   1.883   0.229   2.426  2.2763  1.8971  3.2657
  454SOL     MW 1816   1.815   0.245   2.478  0.0013  0.0003 -0.0018
  455SOL     OW 1817   0.586   1.282   1.954  0.4441  0.2955  0.2423
  455SOL    HW1 1818   0.536   1.362   1.971 -0.2002  0.2445 -1.2727
  455SOL    HW2 1819   0.673   1.313   1.928  0.3116  0.4965  0.0335
  455SOL     MW 1820   0.591   1.296   1.953  0.0013  0.0003 -0.0018
  456SOL     OW 1821   0.374   0.176   3.123 -0.4501 -0.4039 -0.6917
  456SOL    HW1 1822   0.336   0.167   3.036  0.7119 -0.8057 -1.1627
  456SOL    HW2 1823   0.405   0.088   3.145 -0.6205 -0.2778  0.0763
  456SOL     MW 1824   0.373   0.163   3.115  0.0013  0.0003 -0.0018
  457SOL     OW 1825   0.658   0.989   2.342  0.3899  0.2431 -0.3852
  457SOL    HW1 1826   0.657   0.893   2.346  3.2343  0.1227 -0.5048
  457SOL    HW2 1827   0.633   1.009   2.251  1.0114 -0.4584 -0.7173
  457SOL     MW 1828   0.654   0.979   2.331  0.0013  0.0003 -0.0018
  458SOL     OW 1829   2.961   1.141   1.425  0.0364  0.0819  0.3834
  458SOL    HW1 1830   3.022   1.212   1.406  0.1299  0.1594  0.9567
  458SOL    HW2 1831   2.898   1.179   1.485  0.1352 -0.3361  0.7612
  458SOL     MW 1832   2.961   1.155   1.430  0.0013  0.0003 -0.0018
  459SOL     OW 1833   2.592   0.037   1.684  0.0547 -0.0829 -0.5922
  459SOL    HW1 1834   2.505   0.025   1.644 -0.6881  1.9007  0.2908
  459SOL    HW2 1835   2.641   0.088   1.619  0.2702 -0.4504 -0.7202
  459SOL     MW 1836   2.587   0.042   1.670  0.0013  0.0003 -0.0018
  460SOL     OW 1837   0.509   0.475   1.915  0.0150  0.2329  0.2813
  460SOL    HW1 1838   0.562   0.425   1.978  1.1426  1.9564  0.7723
  460SOL    HW2 1839   0.428   0.425   1.907  0.5763 -0.9885  1.7318
  460SOL     MW 1840   0.505   0.462   1.922  0.0013  0.0003 -0.0018
  461SOL     OW 1841   0.694   1.083   1.386 -0.6194 -0.2938  0.8942
  461SOL    HW1 1842   0.656   1.060   1.471  0.3858  0.0546  1.4612
  461SOL    HW2 1843   0.731   1.001   1.353 -2.1573 -0.7272  0.1484
  461SOL     MW 1844   0.694   1.070   1.393  0.0013  0.0003 -0.0018
  462SOL     OW 1845   0.006   2.363   1.859 -0.1903  0.2983  0.0909
  462SOL    HW1 1846   0.055   2.289   1.896  0.4007 -0.1984 -1.5902
  462SOL    HW2 1847   0.023   2.436   1.919  0.0891 -0.6568  1.2031
  462SOL     MW 1848   0.014   2.363   1.871  0.0013  0.0003 -0.0018
  463SOL     OW 1849   2.214   2.871   1.856 -0.4791 -0.0222 -0.2498
  463SOL    HW1 1850   2.245   2.944   1.803 -1.3124  0.1871 -0.4705
  463SOL    HW2 1851   2.141   2.835   1.806 -0.1436 -0.9523 -0.0947
  463SOL     MW 1852   2.209   2.876   1.843  0.0013  0.0003 -0.0018
  464SOL     OW 1853   0.546   1.845   2.340  0.8454  0.0427 -0.3476
  464SOL    HW1 1854   0.569   1.883   2.255 -1.8874  1.1521 -0.6748
  464SOL    HW2 1855   0.451   1.836   2.338  0.9723 -3.3928  1.2294
  464SOL     MW 1856   0.537   1.849   2.329  0.0013  0.0003 -0.0018
  465SOL     OW 1857   1.354   1.211   2.562 -0.5545 -0.1879 -0.2109
  465SOL    HW1 1858   1.345   1.300   2.528  0.5120  0.0766  0.1729
  465SOL    HW2 1859   1.303   1.210   2.643 -1.0890 -0.1214 -0.5381
  465SOL     MW 1860   1.346   1.222   2.568  0.0013  0.0003 -0.0018
  466SOL     OW 1861   1.000   2.997   2.390 -0.2326  0.3250  0.1863
  466SOL    HW1 1862   1.053   3.075   2.406  0.1717  0.0090  0.3985
  466SOL    HW2 1863   0.910   3.027   2.401 -0.0698  0.7074  0.5193
  466SOL     MW 1864   0.995   3.011   2.393  0.0013  0.0003 -0.0018
  467SOL     OW 1865   0.273   0.849   2.720  0.0679  0.4062  0.2391
  467SOL    HW1 1866   0.190   0.816   2.753  0.3240  0.8293  1.3555
  467SOL    HW2 1867   0.324   0.868   2.799  1.0001  0.7152 -0.4208
  467SOL     MW 1868   0.269   0.847   2.735  0.0013  0.0003 -0.0018
  468SOL     OW 1869   2.437   2.453   1.543  0.1640 -0.6222 -0.5463
  468SOL    HW1 1870   2.451   2.535   1.591 -3.2524 -0.6216  0.7560
  468SOL    HW2 1871   2.482   2.387   1.595  0.5149  0.0458  0.0142
  468SOL     MW 1872   2.445   2.455   1.556  0.0013  0.0003 -0.0018
  469SOL     OW 1873   0.736   2.148   2.874 -0.0641 -0.1018  0.8774
  469SOL    HW1 1874   0.817   2.101   2.858 -0.9329 -1.4232  0.1979
  469SOL    HW2 1875   0.752   2.195   2.956  0.7845 -1.7403  1.6983
  469SOL     MW 1876   0.748   2.148   2.883  0.0013  0.0003 -0.0018
  470SOL     OW 1877   0.413   1.849   2.675  0.0423 -0.0143  0.3399
  470SOL    HW1 1878   0.329   1.835   2.632  1.1696 -1.1837 -1.6488
  470SOL    HW2 1879   0.412   1.788   2.749 -0.3134 -1.1156 -0.5430
  470SOL     MW 1880   0.402   1.839   2.679  0.0013  0.0003 -0.0018
  471SOL     OW 1881   0.425   3.021   2.934 -0.2258 -0.2636  0.1483
  471SOL    HW1 1882   0.390   2.946   2.886 -0.8898  0.7659 -0.9997
  471SOL    HW2 1883   0.362   3.091   2.920  0.8708  0.8062  0.4091
  471SOL     MW 1884   0.413   3.020   2.926  0.0013  0.0003 -0.0018
  472SOL     OW 1885   0.548   2.707   1.973  0.2623 -0.5396  0.1357
  472SOL    HW1 1886   0.638   2.678   1.986 -0.0120 -1.5246 -0.1345
  472SOL    HW2 1887   0.545   2.794   2.014  1.5826 -0.0723 -0.6705
  472SOL     MW 1888   0.559   2.715   1.980  0.0013  0.0003 -0.0018
  473SOL     OW 1889   0.499   0.101   0.296  0.0191  0.7570  0.1705
  473SOL    HW1 1890   0.477   0.033   0.359  1.9482 -0.4657 -0.3798
  473SOL    HW2 1891   0.553   0.163   0.345  0.9482  0.1643 -0.0754
  473SOL     MW 1892   0.503   0.100   0.310  0.0013  0.0003 -0.0018
  474SOL     OW 1893   0.874   0.385   1.051  0.1264 -0.3121  0.3160
  474SOL    HW1 1894   0.960   0.343   1.054  0.2422 -0.1020  0.0089
  474SOL    HW2 1895   0.885   0.466   1.102  0.0993 -0.3022  0.3061
  474SOL     MW 1896   0.887   0.390   1.058  0.0013  0.0003 -0.0018
  475SOL     OW 1897   0.763   1.237   0.897 -0.3564 -0.0201  0.3984
  475SOL    HW1 1898   0.691   1.244   0.960  0.2406  1.3610  0.9519
  475SOL    HW2 1899   0.842   1.237   0.951  0.0997 -2.1780 -0.1501
  475SOL     MW 1900   0.764   1.238   0.912  0.0013  0.0003 -0.0018
  476SOL     OW 1901   0.052   2.379   2.432  0.1220  0.4320 -0.2979
  476SOL    HW1 1902   0.041   2.412   2.521  1.0732 -0.1846  0.0554
  476SOL    HW2 1903   0.144   2.352   2.426  0.5883  2.1330 -2.0314
  476SOL     MW 1904   0.062   2.380   2.442  0.0013  0.0003 -0.0018
  477SOL     OW 1905   1.150   1.923   0.139  0.2342 -0.6293 -0.5121
  477SOL    HW1 1906   1.189   1.882   0.217 -1.2765 -0.0891  0.5815
  477SOL    HW2 1907   1.224   1.938   0.080  1.2536 -2.1931  0.2880
  477SOL     MW 1908   1.164   1.919   0.142  0.0013  0.0003 -0.0018
  478SOL     OW 1909   1.640   0.239   0.825  0.7398 -0.7101  0.5051
  478SOL    HW1 1910   1.606   0.152   0.806 -1.5857 -0.1917  1.9618
  478SOL    HW2 1911   1.611   0.293   0.751 -0.4813 -0.5678  1.0662
  478SOL     MW 1912   1.632   0.235   0.813  0.0013  0.0003 -0.0018
  479SOL     OW 1913   1.406   0.704   2.640  0.2772  0.0353 -0.1051
  479SOL    HW1 1914   1.425   0.797   2.637 -1.5276  0.4160 -1.3103
  479SOL    HW2 1915   1.356   0.687   2.560 -0.8186 -1.6272  0.8661
  479SOL     MW 1916   1.402   0.713   2.629  0.0013  0.0003 -0.0018
  480SOL     OW 1917   2.230   2.735   0.139 -0.7134  0.1297  0.4979
  480SOL    HW1 1918   2.158   2.722   0.200 -1.3527 -1.4973 -0.5584
  480SOL    HW2 1919   2.213   2.821   0.100 -1.5751  0.1516  0.9070
  480SOL     MW 1920   2.219   2.744   0.142  0.0013  0.0003 -0.0018
  481SOL     OW 1921   2.350   1.173   0.758 -0.0288 -0.1653 -0.1012
  481SOL    HW1 1922   2.361   1.201   0.849  0.4619  0.7825 -0.4418
  481SOL    HW2 1923   2.409   1.098   0.749 -0.0929 -0.2747  0.3651
  481SOL     MW 1924   2.359   1.167   0.768  0.0013  0.0003 -0.0018
  482SOL     OW 1925   0.776   1.900   1.723  0.2364  0.1913 -0.0792
  482SOL    HW1 1926   0.855   1.858   1.758  1.6228  0.5638 -2.5271
  482SOL    HW2 1927   0.705   1.841   1.747  1.3565 -0.6326  1.4270
  482SOL     MW 1928   0.777   1.887   1.730  0.0013  0.0003 -0.0018
  483SOL     OW 1929   2.102   2.974   1.154  0.0496  0.5523  0.4464
  483SOL    HW1 1930   2.082   2.957   1.246 -1.5870  0.2970  0.0840
  483SOL    HW2 1931   2.094   3.069   1.146 -0.4827  0.5108  0.4372
  483SOL     MW 1932   2.098   2.984   1.165  0.0013  0.0003 -0.0018
  484SOL     OW 1933   0.849   1.642   0.718  0.2964  0.9121 -0.7206
  484SOL    HW1 1934   0.861   1.679   0.806  1.6328  1.4005 -1.0782
  484SOL    HW2 1935   0.784   1.572   0.730  1.2364  0.2535  0.8567
  484SOL     MW 1936   0.842   1.638   0.731  0.0013  0.0003 -0.0018
  485SOL     OW 1937   1.531   0.908   2.757 -0.3701  0.6068 -0.3556
  485SOL    HW1 1938   1.521   0.999   2.728 -0.5298  0.7026 -0.0081
  485SOL    HW2 1939   1.559   0.916   2.849 -0.1544  0.3072 -0.3936
  485SOL     MW 1940   1.533   0.921   2.765  0.0013  0.0003 -0.0018
  486SOL     OW 1941   0.460   2.002   1.946  0.0270  0.2100  0.4867
  486SOL    HW1 1942   0.395   1.934   1.962 -0.0959 -0.4756 -2.4154
  486SOL    HW2 1943   0.410   2.084   1.947 -0.4396 -0.0762  0.6221
  486SOL     MW 1944   0.445   2.004   1.948  0.0013  0.0003 -0.0018
  487SOL     OW 1945   2.937   0.359   2.191 -0.7452  0.6821 -0.5936
  487SOL    HW1 1946   2.871   0.417   2.156 -2.6598 -0.4585  0.9210
  487SOL    HW2 1947   2.930   0.279   2.138 -0.1445  0.7806 -0.8265
  487SOL     MW 1948   2.928   0.356   2.180  0.0013  0.0003 -0.0018
  488SOL     OW 1949   0.660   1.426   0.724 -0.3109 -0.3147 -0.4655
  488SOL    HW1 1950   0.568   1.404   0.742 -0.2678 -1.5662 -1.6488
  488SOL    HW2 1951   0.709   1.375   0.788 -0.3638 -1.3123 -1.1958
  488SOL     MW 1952   0.654   1.417   0.735  0.0013  0.0003 -0.0018
  489SOL     OW 1953   2.707   1.348   2.574  1.0065  0.3614 -0.2978
  489SOL    HW1 1954   2.746   1.367   2.659 -0.1843 -0.6749  0.5049
  489SOL    HW2 1955   2.759   1.400   2.512  2.1718  0.7922  0.9886
  489SOL     MW 1956   2.719   1.357   2.577  0.0013  0.0003 -0.0018
  490SOL     OW 1957   0.054   1.200   0.492  0.0457  1.0246  0.0745
  490SOL    HW1 1958   0.117   1.172   0.426 -0.5953  1.6928 -0.8663
  490SOL    HW2 1959   0.104   1.251   0.555  1.2287 -1.9830  1.7782
  490SOL     MW 1960   0.068   1.203   0.491  0.0013  0.0003 -0.0018
  491SOL     OW 1961   0.959   0.697   2.602 -0.8143 -0.5753 -0.4192
  491SOL    HW1 1962   0.981   0.604   2.594 -1.4921 -0.6775 -1.1559
  491SOL    HW2 1963   1.042   0.743   2.586 -0.6463 -1.0292 -0.8643
  491SOL     MW 1964   0.972   0.691   2.599  0.0013  0.0003 -0.0018
  492SOL     OW 1965   0.844   1.387  -0.026 -0.1413  0.1027 -0.2253
  492SOL    HW1 1966   0.765   1.337  -0.006 -0.0791 -0.4575 -1.3183
  492SOL    HW2 1967   0.857   1.443   0.051 -1.8693  0.5733 -0.2307
  492SOL     MW 1968   0.836   1.388  -0.014  0.0013  0.0003 -0.0018
  493SOL     OW 1969   0.290   1.057   1.025  0.0173 -0.0431  0.3543
  493SOL    HW1 1970   0.298   1.088   1.115  0.4807  1.5076 -0.1958
  493SOL    HW2 1971   0.377   1.023   1.004  0.5883  1.6559 -0.2072
  493SOL     MW 1972   0.302   1.056   1.034  0.0013  0.0003 -0.0018
  494SOL     OW 1973   2.358   2.671   0.471 -0.0305 -0.0982 -0.0241
  494SOL    HW1 1974   2.364   2.705   0.560 -0.8452  0.6382 -0.2435
  494SOL    HW2 1975   2.378   2.746   0.415  0.6758 -0.6008 -0.4753
  494SOL     MW 1976   2.362   2.685   0.475  0.0013  0.0003 -0.0018
  495SOL     OW 1977   3.076   1.691   0.892  0.6672 -0.2000  0.2736
  495SOL    HW1 1978   2.990   1.714   0.926  0.6438 -1.2156  0.9477
  495SOL    HW2 1979   3.070   1.706   0.798 -0.6065 -1.2601  0.1506
  495SOL     MW 1980   3.064   1.696   0.884  0.0013  0.0003 -0.0018
  496SOL     OW 1981   1.609   1.408   1.805  0.0252 -0.6444  0.6577
  496SOL    HW1 1982   1.685   1.382   1.855  3.1860  1.8158 -2.3813
  496SOL    HW2 1983   1.630   1.385   1.714 -1.5411  2.4867 -0.6787
  496SOL     MW 1984   1.621   1.402   1.800  0.0013  0.0003 -0.0018
  497SOL     OW 1985   3.014   1.035   2.937 -0.1454 -0.2805 -0.2524
  497SOL    HW1 1986   3.075   0.965   2.916 -0.9404 -0.7717 -0.9891
  497SOL    HW2 1987   3.058   1.115   2.908  1.0888 -0.3599  1.2805
  497SOL     MW 1988   3.028   1.037   2.931  0.0013  0.0003 -0.0018
  498SOL     OW 1989   1.788   1.523   3.024  0.2118 -0.1662 -0.1672
  498SOL    HW1 1990   1.867   1.562   2.987 -0.9817  1.3909 -1.1798
  498SOL    HW2 1991   1.813   1.497   3.113  1.8789  0.1479 -0.5203
  498SOL     MW 1992   1.801   1.524   3.031  0.0013  0.0003 -0.0018
  499SOL     OW 1993   1.225   2.901   1.066 -0.1601 -0.2050 -0.0286
  499SOL    HW1 1994   1.248   2.837   0.998 -0.1763 -0.6126  0.3432
  499SOL    HW2 1995   1.248   2.986   1.029  0.7734 -0.5099 -0.1515
  499SOL     MW 1996   1.231   2.904   1.053  0.0013  0.0003 -0.0018
  500SOL     OW 1997   0.411   2.671   0.366  0.5281 -0.0904  0.2740
  500SOL    HW1 1998   0.506   2.685   0.366  0.2419  3.2098 -2.7090
  500SOL    HW2 1999   0.399   2.590   0.316  1.7168 -1.3327  1.8711
  500SOL     MW 2000   0.422   2.662   0.360  0.0013  0.0003 -0.0018
  501SOL     OW 2001   0.676   1.911   0.376 -0.2688  0.0787  0.1687
  501SOL    HW1 2002   0.679   1.921   0.281 -0.9266  1.9652  0.3061
  501SOL    HW2 2003   0.731   1.982   0.410 -0.1993 -0.4442  1.1913
  501SOL     MW 2004   0.683   1.922   0.369  0.0013  0.0003 -0.0018
  502SOL     OW 2005   1.631   2.681   1.221  0.0631 -0.4905  0.5953
  502SOL    HW1 2006   1.603   2.722   1.303  1.8765  1.4479  0.3254
  502SOL    HW2 2007   1.727   2.685   1.223  0.2016 -1.7495 -0.9824
  502SOL     MW 2008   1.640   2.686   1.232  0.0013  0.0003 -0.0018
  503SOL     OW 2009   1.032   1.675   2.956 -0.1734  0.6554  0.2971
  503SOL    HW1 2010   1.012   1.697   2.865  0.6939  0.7298  0.1169
  503SOL    HW2 2011   0.971   1.728   3.008 -1.5448 -0.3365 -0.2602
  503SOL     MW 2012   1.022   1.685   2.951  0.0013  0.0003 -0.0018
  504SOL     OW 2013   2.013   2.263   2.048  0.0013 -0.3779  0.1730
  504SOL    HW1 2014   2.096   2.235   2.087 -0.8726 -3.0002  0.3348
  504SOL    HW2 2015   1.981   2.186   2.001 -2.0775  0.7388 -0.3663
  504SOL     MW 2016   2.019   2.250   2.047  0.0013  0.0003 -0.0018
  505SOL     OW 2017   0.831   3.036   2.833  0.5171 -0.3493 -0.2012
  505SOL    HW1 2018   0.849   3.062   2.923 -0.7767 -3.8618  1.2359
  505SOL    HW2 2019   0.747   3.078   2.813  0.4402 -0.1510  0.4883
  505SOL     MW 2020   0.823   3.045   2.842  0.0013  0.0003 -0.0018
  506SOL     OW 2021   0.396   1.765   2.944 -0.0980  0.4232  0.0652
  506SOL    HW1 2022   0.450   1.696   2.982 -0.0916  1.6412  2.4314
  506SOL    HW2 2023   0.434   1.846   2.976 -1.5698  1.4430 -0.6284
  506SOL     MW 2024   0.408   1.766   2.953  0.0013  0.0003 -0.0018
  507SOL     OW 2025   0.727   0.649   2.436 -0.3745 -0.6521  0.2102
  507SOL    HW1 2026   0.665   0.692   2.494 -1.4470 -1.3713 -0.3687
  507SOL    HW2 2027   0.812   0.663   2.477 -1.0222 -0.5157  1.5637
  507SOL     MW 2028   0.730   0.656   2.449  0.0013  0.0003 -0.0018
  508SOL     OW 2029   2.455   0.821   1.846 -0.1287 -0.5512 -0.7453
  508SOL    HW1 2030   2.391   0.892   1.852  0.6938  0.2446 -1.1484
  508SOL    HW2 2031   2.404   0.746   1.815 -1.2587 -0.4985  0.8611
  508SOL     MW 2032   2.440   0.821   1.843  0.0013  0.0003 -0.0018
  509SOL     OW 2033   1.411   1.749   0.919 -0.3448 -0.3528  0.0002
  509SOL    HW1 2034   1.444   1.838   0.908 -0.3818 -0.2309  0.7832
  509SOL    HW2 2035   1.461   1.714   0.992  0.0790 -1.1913 -0.6811
  509SOL     MW 2036   1.421   1.756   0.927  0.0013  0.0003 -0.0018
  510SOL     OW 2037   0.279   1.564   2.542 -0.1360  0.0855  0.2883
  510SOL    HW1 2038   0.364   1.565   2.498  0.5338 -1.3746  1.4386
  510SOL    HW2 2039   0.234   1.643   2.511  0.9767  0.0290 -1.5960
  510SOL     MW 2040   0.284   1.574   2.533  0.0013  0.0003 -0.0018
  511SOL     OW 2041   1.519   0.072   0.499 -0.6240  0.1815  0.0475
  511SOL    HW1 2042   1.451   0.069   0.432  0.3644  1.2570 -1.0548
  511SOL    HW2 2043   1.538   0.165   0.509  0.4767 -0.0842  0.5286
  511SOL     MW 2044   1.513   0.083   0.491  0.0013  0.0003 -0.0018
  512SOL     OW 2045   1.794   0.518   1.896 -0.3761  0.1483  0.3644
  512SOL    HW1 2046   1.782   0.574   1.972 -1.2430 -0.6087  0.8209
  512SOL    HW2 2047   1.705   0.490   1.873  0.0628 -1.6543  0.6546
  512SOL     MW 2048   1.781   0.522   1.903  0.0013  0.0003 -0.0018
  513SOL     OW 2049   1.515   0.090   2.022  0.2823  0.0458 -0.4093
  513SOL    HW1 2050   1.527   0.121   2.111 -2.8063 -0.2766  0.2250
  513SOL    HW2 2051   1.557   0.004   2.020 -0.0664 -0.1730  0.9054
  513SOL     MW 2052   1.522   0.083   2.033  0.0013  0.0003 -0.0018
  514SOL     OW 2053   0.871   2.498   0.088  0.2692 -0.2428  0.1418
  514SOL    HW1 2054   0.803   2.533   0.030 -0.0118 -0.0003  0.6189
  514SOL    HW2 2055   0.938   2.566   0.089  0.3299 -0.2985  0.0146
  514SOL     MW 2056   0.871   2.511   0.080  0.0013  0.0003 -0.0018
  515SOL     OW 2057   1.214   2.296   0.066  0.0965  0.0431 -0.3491
  515SOL    HW1 2058   1.292   2.285   0.011  0.9823 -2.2341  1.1732
  515SOL    HW2 2059   1.142   2.262   0.013  0.9158 -1.9924 -0.2746
  515SOL     MW 2060   1.215   2.290   0.052  0.0013  0.0003 -0.0018
  516SOL     OW 2061   1.976   3.050   0.821  0.6865 -0.1159 -0.7086
  516SOL    HW1 2062   2.054   2.994   0.814  1.0686  0.1146  1.1322
  516SOL    HW2 2063   1.910   2.994   0.862  0.4119  0.1885 -0.7295
  516SOL     MW 2064   1.977   3.036   0.825  0.0013  0.0003 -0.0018
  517SOL     OW 2065   2.992   0.236   0.779  0.1507  0.3078 -0.1976
  517SOL    HW1 2066   3.082   0.238   0.812 -0.2770 -1.4106  1.2504
  517SOL    HW2 2067   2.941   0.284   0.845 -0.4884 -1.8811  1.0098
  517SOL     MW 2068   2.997   0.243   0.792  0.0013  0.0003 -0.0018
  518SOL     OW 2069   1.872   0.316   1.710 -0.5583  0.1077 -0.4865
  518SOL    HW1 2070   1.965   0.297   1.723  0.1780  2.2599 -2.0044
  518SOL    HW2 2071   1.852   0.385   1.774 -1.3329 -0.8342  0.3163
  518SOL     MW 2072   1.882   0.322   1.720  0.0013  0.0003 -0.0018
  519SOL     OW 2073   1.307   2.089   1.119 -0.1783  0.5471  0.2522
  519SOL    HW1 2074   1.268   2.023   1.062  1.2929  0.5202 -0.7751
  519SOL    HW2 2075   1.239   2.107   1.184 -2.2791  1.1967 -1.9494
  519SOL     MW 2076   1.293   2.083   1.120  0.0013  0.0003 -0.0018
  520SOL     OW 2077   2.765   2.762   0.372  0.1036  0.0263 -0.2321
  520SOL    HW1 2078   2.750   2.723   0.286  1.7732 -1.3394  0.0331
  520SOL    HW2 2079   2.728   2.700   0.434 -1.4924  1.2164  0.0685
  520SOL     MW 2080   2.758   2.749   0.369  0.0013  0.0003 -0.0018
  521SOL     OW 2081   2.024   1.091   1.417 -0.1615 -0.4199 -0.4070
  521SOL    HW1 2082   1.976   1.119   1.494 -1.2917 -2.5552 -0.2724
  521SOL    HW2 2083   2.040   1.172   1.368 -0.4166  0.8251  1.4718
  521SOL     MW 2084   2.020   1.105   1.420  0.0013  0.0003 -0.0018
  522SOL     OW 2085   1.466   1.500   2.204  0.0446 -0.5548  0.0700
  522SOL    HW1 2086   1.410   1.494   2.282 -1.0824  3.8028 -0.1100
  522SOL    HW2 2087   1.404   1.515   2.132  1.1459  2.8689 -0.3764
  522SOL     MW 2088   1.451   1.501   2.205  0.0013  0.0003 -0.0018
  523SOL     OW 2089   1.441   0.836   1.218  0.1066  0.3449  0.3950
  523SOL    HW1 2090   1.536   0.839   1.231 -0.1488  0.0064  2.9776
  523SOL    HW2 2091   1.405   0.881   1.294 -1.8350  0.9988 -0.8298
  523SOL     MW 2092   1.448   0.842   1.229  0.0013  0.0003 -0.0018
  524SOL     OW 2093   0.005   1.238   2.167 -0.6875  0.2097  0.0841
  524SOL    HW1 2094   0.081   1.186   2.142 -1.3193 -1.0803  0.7001
  524SOL    HW2 2095   0.041   1.310   2.218  0.2939  0.9282 -1.5564
  524SOL     MW 2096   0.019   1.240   2.171  0.0013  0.0003 -0.0018
  525SOL     OW 2097   0.194   0.756   0.739 -0.2669 -0.3518 -0.5397
  525SOL    HW1 2098   0.266   0.747   0.802 -0.1742  2.2801 -0.1466
  525SOL    HW2 2099   0.238   0.774   0.655 -0.4439 -0.0246 -0.5638
  525SOL     MW 2100   0.209   0.757   0.736  0.0013  0.0003 -0.0018
  526SOL     OW 2101   0.722   0.342   2.779 -0.2269 -0.2088 -0.7502
  526SOL    HW1 2102   0.668   0.348   2.700 -0.5378 -1.8055 -0.7004
  526SOL    HW2 2103   0.662   0.314   2.848 -0.0151  1.4571  0.1445
  526SOL     MW 2104   0.708   0.339   2.777  0.0013  0.0003 -0.0018
  527SOL     OW 2105   1.453   2.228   2.045 -0.1312 -0.0587  0.0397
  527SOL    HW1 2106   1.544   2.252   2.030 -0.4742  1.0715 -0.2911
  527SOL    HW2 2107   1.458   2.155   2.108  0.9182  1.4640  1.8182
  527SOL     MW 2108   1.465   2.222   2.051  0.0013  0.0003 -0.0018
  528SOL     OW 2109   2.486   2.355   2.675 -0.4355  0.5104  0.3621
  528SOL    HW1 2110   2.448   2.269   2.694  1.2561 -0.5600 -0.8252
  528SOL    HW2 2111   2.498   2.356   2.580  0.1040  1.8515  0.4190
  528SOL     MW 2112   2.482   2.344   2.666  0.0013  0.0003 -0.0018
  529SOL     OW 2113   2.512   1.253   0.997  0.2202 -0.1201  0.3532
  529SOL    HW1 2114   2.463   1.277   1.075 -0.6418 -1.3339  0.2099
  529SOL    HW2 2115   2.556   1.334   0.971 -2.3767  1.2947  0.0108
  529SOL     MW 2116   2.511   1.266   1.003  0.0013  0.0003 -0.0018
  530SOL     OW 2117   1.691   1.835   0.615  0.1224 -0.3909 -0.3466
  530SOL    HW1 2118   1.653   1.890   0.547  0.1128  0.1196  0.0671
  530SOL    HW2 2119   1.712   1.895   0.686  2.1586 -0.5680 -0.7317
  530SOL     MW 2120   1.689   1.849   0.615  0.0013  0.0003 -0.0018
  531SOL     OW 2121   1.025   0.305   2.049  0.2876  0.2024 -0.2714
  531SOL    HW1 2122   1.046   0.324   1.958 -0.6430  0.4268 -0.4526
  531SOL    HW2 2123   1.109   0.286   2.090  0.6180 -0.9399 -1.4133
  531SOL     MW 2124   1.039   0.305   2.042  0.0013  0.0003 -0.0018
  532SOL     OW 2125   0.171   0.990   0.104  0.2928 -0.3952 -0.5242
  532SOL    HW1 2126   0.081   1.021   0.107 -0.2485 -1.9003 -0.2280
  532SOL    HW2 2127   0.195   0.997   0.011  0.2267  0.8958 -0.4656
  532SOL     MW 2128   0.163   0.995   0.092  0.0013  0.0003 -0.0018
  533SOL     OW 2129   2.514   0.413   2.284  0.1241 -0.1058 -0.1161
  533SOL    HW1 2130   2.505   0.340   2.345 -1.3869 -0.6933 -0.9774
  533SOL    HW2 2131   2.534   0.372   2.200  1.4982  0.6475 -0.1967
  533SOL     MW 2132   2.516   0.398   2.281  0.0013  0.0003 -0.0018
  534SOL     OW 2133   0.926   1.689   2.318 -0.0654  0.3678  0.7839
  534SOL    HW1 2134   0.848   1.637   2.338 -0.3997  0.4478 -0.2333
  534SOL    HW2 2135   0.896   1.754   2.255  0.6417  0.9670  1.0526
  534SOL     MW 2136   0.912   1.690   2.312  0.0013  0.0003 -0.0018
  535SOL     OW 2137   1.198   1.208   2.105  0.1650  0.2549 -0.2773
  535SOL    HW1 2138   1.146   1.282   2.139 -0.6883 -0.3982 -0.1325
  535SOL    HW2 2139   1.134   1.139   2.090  0.6346  0.2580 -2.5420
  535SOL     MW 2140   1.183   1.209   2.108  0.0013  0.0003 -0.0018
  536SOL     OW 2141   2.147   1.415   1.671 -0.1236 -0.2755 -0.0865
  536SOL    HW1 2142   2.158   1.473   1.746  2.2591 -1.0492  0.2471
  536SOL    HW2 2143   2.143   1.473   1.596  1.5363  0.3852  0.3012
  536SOL     MW 2144   2.148   1.430   1.671  0.0013  0.0003 -0.0018
  537SOL     OW 2145   0.665   1.703   2.623 -0.5971 -0.2614 -0.0164
  537SOL    HW1 2146   0.667   1.692   2.528 -0.4835  1.8607 -0.3080
  537SOL    HW2 2147   0.577   1.736   2.641  0.1494  1.7555  0.2482
  537SOL     MW 2148   0.654   1.706   2.613  0.0013  0.0003 -0.0018
  538SOL     OW 2149   1.846   1.249   0.343 -0.2972  0.9889 -0.1152
  538SOL    HW1 2150   1.813   1.296   0.419  1.5416  2.2869 -0.0493
  538SOL    HW2 2151   1.928   1.209   0.372  0.5134  1.6207 -1.4047
  538SOL     MW 2152   1.853   1.250   0.356  0.0013  0.0003 -0.0018
  539SOL     OW 2153   2.025   2.432   0.650 -0.1027 -0.1274 -0.7594
  539SOL    HW1 2154   1.993   2.465   0.734  1.1364 -1.9624  0.5117
  539SOL    HW2 2155   2.121   2.432   0.659  0.0433 -0.5998 -2.0774
  539SOL     MW 2156   2.033   2.436   0.662  0.0013  0.0003 -0.0018
  540SOL     OW 2157   0.235   0.939   2.466 -0.0265 -0.4742  0.1958
  540SOL    HW1 2158   0.144   0.968   2.479 -0.2393 -1.2697  0.5324
  540SOL    HW2 2159   0.254   0.884   2.542  0.2942 -1.3982 -0.5258
  540SOL     MW 2160   0.226   0.936   2.477  0.0013  0.0003 -0.0018
  541SOL     OW 2161   2.887   2.347   2.693  0.3729 -0.3546 -0.0308
  541SOL    HW1 2162   2.875   2.299   2.612 -2.6005  0.1564  0.0132
  541SOL    HW2 2163   2.838   2.296   2.758 -0.9684  1.5034  0.4764
  541SOL     MW 2164   2.879   2.334   2.691  0.0013  0.0003 -0.0018
  542SOL     OW 2165   0.928   1.105   2.306 -0.1851 -0.2259  0.5685
  542SOL    HW1 2166   0.863   1.038   2.327 -0.1366 -0.4383  0.0611
  542SOL    HW2 2167   0.981   1.112   2.385 -0.5118 -0.4142  0.8069
  542SOL     MW 2168   0.927   1.097   2.319  0.0013  0.0003 -0.0018
  543SOL     OW 2169   1.495   2.684   2.170  0.0081 -0.5388 -0.2036
  543SOL    HW1 2170   1.459   2.753   2.114 -0.4859 -0.5035  0.1518
  543SOL    HW2 2171   1.570   2.726   2.214 -1.5586  0.4840  1.6488
  543SOL     MW 2172   1.500   2.699   2.168  0.0013  0.0003 -0.0018
  544SOL     OW 2173   0.499   1.371   2.312  0.1272 -0.1410  0.1200
  544SOL    HW1 2174   0.591   1.351   2.330  0.6533  2.7297  1.1274
  544SOL    HW2 2175   0.458   1.285   2.300  3.0321 -1.5112 -1.1129
  544SOL     MW 2176   0.505   1.357   2.312  0.0013  0.0003 -0.0018
  545SOL     OW 2177   2.422   0.347   2.805  0.2540  0.0172 -0.1913
  545SOL    HW1 2178   2.407   0.300   2.723 -1.2620 -0.5281  0.3737
  545SOL    HW2 2179   2.409   0.439   2.782 -0.2599 -0.1400 -0.5502
  545SOL     MW 2180   2.418   0.353   2.792  0.0013  0.0003 -0.0018
  546SOL     OW 2181   0.418   1.510   1.891  0.5776 -0.2416  0.1959
  546SOL    HW1 2182   0.336   1.502   1.940 -1.0925  4.1383 -1.3790
  546SOL    HW2 2183   0.401   1.465   1.808 -0.7985  1.4881 -0.5444
  546SOL     MW 2184   0.405   1.503   1.887  0.0013  0.0003 -0.0018
  547SOL     OW 2185   1.099   2.523   1.691 -0.1223  0.0428 -0.0369
  547SOL    HW1 2186   1.026   2.584   1.680 -0.8652 -0.7968  0.1833
  547SOL    HW2 2187   1.148   2.557   1.766 -1.2768 -0.3545  0.9155
  547SOL     MW 2188   1.096   2.535   1.699  0.0013  0.0003 -0.0018
  548SOL     OW 2189   0.667   2.712   0.436  0.5167 -0.1606 -0.3230
  548SOL    HW1 2190   0.666   2.759   0.520 -1.0670  0.6178 -0.7446
  548SOL    HW2 2191   0.732   2.758   0.383  0.2182  0.4733 -0.1401
  548SOL     MW 2192   0.675   2.724   0.440  0.0013  0.0003 -0.0018
  549SOL     OW 2193   2.835   1.718   3.087 -0.3766 -0.1059  0.3174
  549SOL    HW1 2194   2.853   1.802   3.131 -0.5063  1.0240 -1.6598
  549SOL    HW2 2195   2.771   1.740   3.020 -0.2823 -1.7745 -0.3547
  549SOL     MW 2196   2.829   1.732   3.084  0.0013  0.0003 -0.0018
  550SOL     OW 2197   2.912   1.946   0.116 -0.4328  0.0988 -0.6015
  550SOL    HW1 2198   2.913   2.015   0.182  0.1889  1.2694 -1.8020
  550SOL    HW2 2199   2.997   1.953   0.071 -1.7200  0.9415 -3.1133
  550SOL     MW 2200   2.923   1.956   0.119  0.0013  0.0003 -0.0018
  551SOL     OW 2201   1.185   1.578   0.942  0.2071  0.1335  0.4967
  551SOL    HW1 2202   1.153   1.518   0.874 -0.0391  1.1961 -0.3531
  551SOL    HW2 2203   1.246   1.636   0.895  1.5265 -0.3192  1.5847
  551SOL     MW 2204   1.189   1.578   0.927  0.0013  0.0003 -0.0018
  552SOL     OW 2205   0.491   0.763   2.519  0.2008  0.6342  0.1904
  552SOL    HW1 2206   0.470   0.855   2.533  1.7342  0.9244  0.8264
  552SOL    HW2 2207   0.423   0.715   2.565 -1.9130  1.3616 -2.0032
  552SOL     MW 2208   0.480   0.769   2.527  0.0013  0.0003 -0.0018
  553SOL     OW 2209   2.490   2.734   1.639  0.0295  0.2739 -0.2118
  553SOL    HW1 2210   2.583   2.740   1.661 -0.1097  1.0635  0.1582
  553SOL    HW2 2211   2.445   2.732   1.723 -0.2896 -0.2269 -0.3899
  553SOL     MW 2212   2.497   2.734   1.652  0.0013  0.0003 -0.0018
  554SOL     OW 2213   0.913   1.261   1.383  0.9351  0.0594  0.0905
  554SOL    HW1 2214   0.877   1.349   1.377 -1.4491 -0.9473 -2.5223
  554SOL    HW2 2215   0.837   1.203   1.372  2.3281 -2.3810  2.2296
  554SOL     MW 2216   0.899   1.264   1.381  0.0013  0.0003 -0.0018
  555SOL     OW 2217   1.797   1.562   0.941 -0.5918 -0.0356 -0.1545
  555SOL    HW1 2218   1.832   1.651   0.948  0.5384 -0.3892 -1.0148
  555SOL    HW2 2219   1.866   1.506   0.975 -0.4362 -0.7193 -1.5325
  555SOL     MW 2220   1.810   1.567   0.946  0.0013  0.0003 -0.0018
  556SOL     OW 2221   2.073   1.123   1.053  0.8436  0.4522  0.6366
  556SOL    HW1 2222   2.165   1.115   1.079  0.6362  0.2985  1.3514
  556SOL    HW2 2223   2.052   1.038   1.014  0.9141  0.3612  0.7922
  556SOL     MW 2224   2.082   1.111   1.052  0.0013  0.0003 -0.0018
  557SOL     OW 2225   2.029   1.794   2.140  0.0178 -0.4340 -0.0442
  557SOL    HW1 2226   2.017   1.702   2.162 -0.7127 -0.7537 -1.6209
  557SOL    HW2 2227   2.009   1.841   2.220  0.0667 -1.6230  0.6914
  557SOL     MW 2228   2.025   1.788   2.153  0.0013  0.0003 -0.0018
  558SOL     OW 2229   0.611   0.971   0.424 -0.6399  0.1515  0.1399
  558SOL    HW1 2230   0.673   0.923   0.479 -1.4564  0.3086  1.2559
  558SOL    HW2 2231   0.661   1.046   0.391  0.2066 -0.6169 -0.3380
  558SOL     MW 2232   0.625   0.975   0.427  0.0013  0.0003 -0.0018
  559SOL     OW 2233   0.573   3.099   2.742 -0.2664 -0.0199  0.1608
  559SOL    HW1 2234   0.513   3.088   2.816 -0.0735 -1.9985  0.0849
  559SOL    HW2 2235   0.542   3.035   2.677  2.4902 -1.9032  0.5346
  559SOL     MW 2236   0.562   3.089   2.743  0.0013  0.0003 -0.0018
  560SOL     OW 2237   2.136   1.770   3.082 -0.6390  0.2476  0.3246
  560SOL    HW1 2238   2.098   1.706   3.021  2.0329 -2.6038  1.3660
  560SOL    HW2 2239   2.121   1.732   3.169  1.3379  0.7930  0.9655
  560SOL     MW 2240   2.129   1.757   3.086  0.0013  0.0003 -0.0018
  561SOL     OW 2241   3.018   0.698   0.677 -0.3427 -0.0055 -0.7264
  561SOL    HW1 2242   3.104   0.734   0.699 -0.5072  0.6219 -1.0721
  561SOL    HW2 2243   3.033   0.604   0.668  0.0700 -0.0600  0.3590
  561SOL     MW 2244   3.031   0.691   0.678  0.0013  0.0003 -0.0018
  562SOL     OW 2245   0.085   0.983   1.552 -0.2494  0.4476  0.5606
  562SOL    HW1 2246   0.135   1.064   1.539 -1.1647  0.6408 -2.6290
  562SOL    HW2 2247  -0.001   1.002   1.514 -0.0408 -2.3969 -1.7142
  562SOL     MW 2248   0.080   0.996   1.545  0.0013  0.0003 -0.0018
  563SOL     OW 2249   2.869   2.986   2.536 -0.1887 -0.1748  0.0560
  563SOL    HW1 2250   2.843   3.076   2.517  1.2018  0.0889 -0.7272
  563SOL    HW2 2251   2.916   2.957   2.458  2.4551 -0.3398  1.5958
  563SOL     MW 2252   2.872   2.994   2.524  0.0013  0.0003 -0.0018
  564SOL     OW 2253   1.352   1.342   0.347 -0.1937 -1.2075 -0.3166
  564SOL    HW1 2254   1.431   1.308   0.305  0.8181 -0.5567  0.9748
  564SOL    HW2 2255   1.345   1.291   0.428 -0.7212 -0.8114 -0.1129
  564SOL     MW 2256   1.361   1.331   0.352  0.0013  0.0003 -0.0018
  565SOL     OW 2257   2.942   2.227   2.974 -0.7598 -0.3012 -0.0900
  565SOL    HW1 2258   2.854   2.232   3.011 -0.7325  1.3375 -0.1746
  565SOL    HW2 2259   2.951   2.136   2.946 -2.2556 -0.6018  0.3119
  565SOL     MW 2260   2.932   2.216   2.975  0.0013  0.0003 -0.0018
  566SOL     OW 2261   3.045   1.456   0.325  0.3071  0.7717  0.0584
  566SOL    HW1 2262   3.081   1.370   0.302  0.3258  1.0136 -0.8346
  566SOL    HW2 2263   2.952   1.449   0.305  0.0793  0.5828  1.1139
  566SOL     MW 2264   3.038   1.444   0.320  0.0013  0.0003 -0.0018
  567SOL     OW 2265   1.633   3.009   1.720  0.2173  0.6164 -0.1279
  567SOL    HW1 2266   1.638   3.092   1.671  1.3297 -0.7192 -2.4607
  567SOL    HW2 2267   1.655   2.942   1.655  0.1376 -1.4580  1.8779
  567SOL     MW 2268   1.637   3.011   1.705  0.0013  0.0003 -0.0018
  568SOL     OW 2269   1.278   1.248   1.835 -0.4906 -0.1388  0.2085
  568SOL    HW1 2270   1.262   1.205   1.919 -0.9906 -0.9658 -0.2977
  568SOL    HW2 2271   1.343   1.316   1.855 -0.3283 -0.5658  1.1901
  568SOL     MW 2272   1.284   1.251   1.848  0.0013  0.0003 -0.0018
  569SOL     OW 2273   2.793   1.540   1.606 -0.2098 -0.3250  0.7801
  569SOL    HW1 2274   2.857   1.478   1.640  1.1169  0.8457  0.4848
  569SOL    HW2 2275   2.713   1.488   1.596  1.1415 -2.2914 -0.5597
  569SOL     MW 2276   2.791   1.525   1.609  0.0013  0.0003 -0.0018
  570SOL     OW 2277   1.576   2.397   0.716  0.4930 -0.6317  0.2942
  570SOL    HW1 2278   1.548   2.379   0.806  1.1341  2.0653  1.1386
  570SOL    HW2 2279   1.648   2.459   0.726  2.0910 -1.9830 -2.0512
  570SOL     MW 2280   1.582   2.402   0.729  0.0013  0.0003 -0.0018
  571SOL     OW 2281   3.063   1.001   2.568  0.8987 -0.0014 -0.0139
  571SOL    HW1 2282   3.093   1.053   2.642 -0.0404 -0.9082  1.0314
  571SOL    HW2 2283   2.995   0.944   2.603 -0.4109  0.3517 -1.8203
  571SOL     MW 2284   3.058   1.000   2.582  0.0013  0.0003 -0.0018
  572SOL     OW 2285   0.655   0.331   0.363  0.2208  0.5994  0.3382
  572SOL    HW1 2286   0.743   0.359   0.385  1.1128 -1.2964 -0.5654
  572SOL    HW2 2287   0.599   0.375   0.427  1.3423  4.7044 -1.2389
  572SOL     MW 2288   0.659   0.340   0.374  0.0013  0.0003 -0.0018
  573SOL     OW 2289   0.622   0.263   0.688 -0.0478  0.0445 -0.7782
  573SOL    HW1 2290   0.558   0.290   0.622 -0.3934 -2.0363 -1.3807
  573SOL    HW2 2291   0.591   0.177   0.717  2.4037 -1.0121 -1.0207
  573SOL     MW 2292   0.610   0.256   0.683  0.0013  0.0003 -0.0018
  574SOL     OW 2293   0.785   2.463   2.484 -0.6346  1.0618 -0.4055
  574SOL    HW1 2294   0.823   2.551   2.492  1.5011  0.2715 -0.9570
  574SOL    HW2 2295   0.852   2.405   2.520 -2.1511 -0.3456  0.2753
  574SOL     MW 2296   0.799   2.467   2.489  0.0013  0.0003 -0.0018
  575SOL     OW 2297   2.345   0.214   1.111 -0.0389  0.3440 -0.3445
  575SOL    HW1 2298   2.294   0.294   1.097 -1.5824  0.0181  2.5788
  575SOL    HW2 2299   2.414   0.240   1.171 -1.2064 -0.6351  1.5230
  575SOL     MW 2300   2.347   0.228   1.117  0.0013  0.0003 -0.0018
  576SOL     OW 2301   0.859   1.421   2.032 -0.4187 -0.2280  0.4732
  576SOL    HW1 2302   0.787   1.482   2.046  0.0286  0.7010 -1.0591
  576SOL    HW2 2303   0.866   1.413   1.937  0.8881 -1.0385  0.6076
  576SOL     MW 2304   0.850   1.427   2.021  0.0013  0.0003 -0.0018
  577SOL     OW 2305   0.506   0.686   0.385  0.0985 -0.0963  0.6666
  577SOL    HW1 2306   0.415   0.709   0.403 -0.2824 -0.6744 -0.3898
  577SOL    HW2 2307   0.553   0.769   0.389 -0.4494  0.1961  1.3371
  577SOL     MW 2308   0.500   0.699   0.388  0.0013  0.0003 -0.0018
  578SOL     OW 2309   0.091   2.826   1.494  0.1485 -0.0929  0.2139
  578SOL    HW1 2310   0.031   2.755   1.474  2.7949 -2.1583 -1.0000
  578SOL    HW2 2311   0.121   2.809   1.583  0.0819  0.0177  0.2571
  578SOL     MW 2312   0.087   2.815   1.502  0.0013  0.0003 -0.0018
  579SOL     OW 2313   0.526   2.033   2.997 -0.6229  0.0636  0.4379
  579SOL    HW1 2314   0.584   2.058   2.926 -1.1329 -0.3611 -0.1383
  579SOL    HW2 2315   0.453   2.096   2.993 -1.1798 -0.6033 -0.0946
  579SOL     MW 2316   0.524   2.044   2.988  0.0013  0.0003 -0.0018
  580SOL     OW 2317   2.326   2.914   1.504  0.7380 -0.2834  0.3581
  580SOL    HW1 2318   2.371   2.835   1.532 -1.1101 -1.9119 -0.9674
  580SOL    HW2 2319   2.346   2.922   1.411 -1.8431 -1.3178 -0.3959
  580SOL     MW 2320   2.334   2.905   1.496  0.0013  0.0003 -0.0018
  581SOL     OW 2321   2.827   2.310   1.785 -0.7391 -0.1882 -0.1210
  581SOL    HW1 2322   2.908   2.351   1.815 -1.2703  1.3451 -0.6438
  581SOL    HW2 2323   2.760   2.376   1.801 -1.7077 -1.0178 -0.6613
  581SOL     MW 2324   2.829   2.324   1.791  0.0013  0.0003 -0.0018
  582SOL     OW 2325   2.049   0.742   1.687  0.0456 -0.0274  0.4243
  582SOL    HW1 2326   1.989   0.679   1.646  0.0318  1.2297 -1.6562
  582SOL    HW2 2327   2.089   0.788   1.613  2.7250  0.0051  1.7818
  582SOL     MW 2328   2.046   0.740   1.672  0.0013  0.0003 -0.0018
  583SOL     OW 2329   2.397   1.676   0.981 -0.1363 -0.2877  0.5922
  583SOL    HW1 2330   2.405   1.697   0.888  3.0168  0.9955  1.0408
  583SOL    HW2 2331   2.314   1.715   1.008 -0.9217 -0.3458 -1.5591
  583SOL     MW 2332   2.387   1.683   0.973  0.0013  0.0003 -0.0018
  584SOL     OW 2333   0.613   2.491   0.747  0.3928  0.1462  0.2784
  584SOL    HW1 2334   0.536   2.493   0.691  0.0366 -2.4881  0.5456
  584SOL    HW2 2335   0.605   2.569   0.802 -1.6192  0.3924 -0.2783
  584SOL     MW 2336   0.602   2.501   0.747  0.0013  0.0003 -0.0018
  585SOL     OW 2337   1.951   0.403   2.175 -0.2889  0.4256 -0.0926
  585SOL    HW1 2338   1.917   0.488   2.199  0.2521 -0.2612  3.6403
  585SOL    HW2 2339   2.045   0.409   2.192  0.2274 -0.2200 -2.2913
  585SOL     MW 2340   1.959   0.415   2.180  0.0013  0.0003 -0.0018
  586SOL     OW 2341   0.500   2.151   0.619 -0.2725 -0.1460  0.9411
  586SOL    HW1 2342   0.583   2.162   0.666  0.0950 -0.1554  0.3005
  586SOL    HW2 2343   0.433   2.175   0.683  0.2873  1.2385  1.0349
  586SOL     MW 2344   0.502   2.156   0.633  0.0013  0.0003 -0.0018
  587SOL     OW 2345   0.115   0.225   1.681  0.0164  0.3890 -0.2967
  587SOL    HW1 2346   0.115   0.292   1.613  0.3788 -1.2769 -2.0324
  587SOL    HW2 2347   0.022   0.202   1.692 -0.3581  2.5556  1.8449
  587SOL     MW 2348   0.103   0.230   1.674  0.0013  0.0003 -0.0018
  588SOL     OW 2349   1.862   2.953   0.181 -0.2602 -0.0031 -0.3277
  588SOL    HW1 2350   1.834   3.026   0.236  1.6598  0.7721 -0.2973
  588SOL    HW2 2351   1.901   2.891   0.242  2.1855  1.0067 -0.7149
  588SOL     MW 2352   1.864   2.955   0.196  0.0013  0.0003 -0.0018
  589SOL     OW 2353   0.406   1.573   2.163  0.4604 -0.0703 -0.2828
  589SOL    HW1 2354   0.443   1.503   2.216  0.9112 -0.1706 -0.7283
  589SOL    HW2 2355   0.329   1.533   2.121 -1.3226  0.6374  2.0672
  589SOL     MW 2356   0.401   1.559   2.164  0.0013  0.0003 -0.0018
  590SOL     OW 2357   1.865   0.538   1.404  0.2197 -0.0184  0.1719
  590SOL    HW1 2358   1.817   0.604   1.454 -0.8825 -2.9081  3.2882
  590SOL    HW2 2359   1.943   0.520   1.456  1.3283 -0.1320 -1.4535
  590SOL     MW 2360   1.868   0.544   1.417  0.0013  0.0003 -0.0018
  591SOL     OW 2361   1.313   0.129   0.261 -0.0938  0.7677  0.1367
  591SOL    HW1 2362   1.289   0.037   0.252 -0.0059  0.8913 -1.9309
  591SOL    HW2 2363   1.271   0.158   0.341  2.4677 -1.8406  2.6502
  591SOL     MW 2364   1.305   0.121   0.270  0.0013  0.0003 -0.0018
  592SOL     OW 2365   1.001   1.814   1.865 -0.9410 -0.1110  0.2291
  592SOL    HW1 2366   1.076   1.858   1.906  0.0840 -0.1788 -1.4341
  592SOL    HW2 2367   1.037   1.732   1.832 -1.6622 -0.0316 -0.8121
  592SOL     MW 2368   1.015   1.809   1.866  0.0013  0.0003 -0.0018
  593SOL     OW 2369   2.126   1.929   1.667 -0.1888  0.0584 -0.3638
  593SOL    HW1 2370   2.162   2.012   1.697  0.3651 -0.9179  1.9112
  593SOL    HW2 2371   2.080   1.893   1.743 -1.5166 -1.1579 -1.6570
  593SOL     MW 2372   2.125   1.935   1.681  0.0013  0.0003 -0.0018
  594SOL     OW 2373   2.415   1.700   2.640  0.3172  0.2995 -0.2991
  594SOL    HW1 2374   2.414   1.659   2.727  2.2354  2.0201  0.6364
  594SOL    HW2 2375   2.329   1.682   2.604 -0.5161 -0.5538  1.9419
  594SOL     MW 2376   2.404   1.693   2.647  0.0013  0.0003 -0.0018
  595SOL     OW 2377   2.162   1.797   1.060 -0.1700  0.0283 -0.1205
  595SOL    HW1 2378   2.067   1.792   1.048 -0.4324  1.5567  1.0320
  595SOL    HW2 2379   2.179   1.888   1.084  1.3487 -0.6379  1.5686
  595SOL     MW 2380   2.152   1.808   1.062  0.0013  0.0003 -0.0018
  596SOL     OW 2381   1.108   0.957   2.077 -0.1165  1.0678 -0.0407
  596SOL    HW1 2382   1.039   0.936   2.015 -0.4901 -0.5832  0.8721
  596SOL    HW2 2383   1.064   0.956   2.163  0.5992  2.2409  0.3721
  596SOL     MW 2384   1.093   0.955   2.080  0.0013  0.0003 -0.0018
  597SOL     OW 2385   1.127   0.825   3.062  0.0402  0.1392 -0.1373
  597SOL    HW1 2386   1.165   0.817   3.150  0.0555 -1.5051 -0.2498
  597SOL    HW2 2387   1.197   0.865   3.010  1.3647 -1.9397 -0.1132
  597SOL     MW 2388   1.141   0.829   3.066  0.0013  0.0003 -0.0018
  598SOL     OW 2389   0.233   2.221   1.644 -0.5141 -0.2413 -0.2595
  598SOL    HW1 2390   0.186   2.182   1.718 -1.6743 -0.6003 -1.1660
  598SOL    HW2 2391   0.197   2.309   1.636  0.5185  0.2631  0.3757
  598SOL     MW 2392   0.223   2.227   1.652  0.0013  0.0003 -0.0018
  599SOL     OW 2393   1.965   2.144   0.624  0.2253 -0.4146 -0.2785
  599SOL    HW1 2394   1.975   2.235   0.596  0.4587 -0.7508 -1.3336
  599SOL    HW2 2395   2.005   2.093   0.554 -1.0569 -1.3950 -0.3165
  599SOL     MW 2396   1.972   2.149   0.612  0.0013  0.0003 -0.0018
  600SOL     OW 2397   3.127   2.427   0.463  0.7887  0.4108  0.1224
  600SOL    HW1 2398   3.107   2.509   0.419  0.0847 -0.0360 -0.4258
  600SOL    HW2 2399   3.046   2.401   0.505  0.9796 -0.0345  0.2295
  600SOL     MW 2400   3.114   2.434   0.462  0.0013  0.0003 -0.0018
  601SOL     OW 2401   1.080   1.401   2.939  0.0675 -0.5553 -0.1551
  601SOL    HW1 2402   1.069   1.495   2.928 -0.0077 -0.7541 -1.9585
  601SOL    HW2 2403   1.010   1.376   3.000  0.4488  0.6181  0.8055
  601SOL     MW 2404   1.070   1.409   2.946  0.0013  0.0003 -0.0018
  602SOL     OW 2405   2.911   1.350   0.831  0.5638 -0.2502 -0.0957
  602SOL    HW1 2406   2.914   1.286   0.759 -4.9006 -0.8551 -0.2676
  602SOL    HW2 2407   2.928   1.298   0.910 -0.8003 -1.3918 -0.4898
  602SOL     MW 2408   2.913   1.335   0.832  0.0013  0.0003 -0.0018
  603SOL     OW 2409   2.320   2.276   2.404  0.0734  0.1065  0.3571
  603SOL    HW1 2410   2.298   2.337   2.334 -0.5440  0.5219  0.9055
  603SOL    HW2 2411   2.244   2.276   2.462  1.0314  0.6865  1.6679
  603SOL     MW 2412   2.308   2.284   2.403  0.0013  0.0003 -0.0018
  604SOL     OW 2413   1.112   1.131   0.211 -0.0973 -0.1259 -0.4060
  604SOL    HW1 2414   1.180   1.188   0.174  1.6747 -2.6861 -1.3774
  604SOL    HW2 2415   1.158   1.078   0.276 -2.0503  0.5624  1.6830
  604SOL     MW 2416   1.127   1.132   0.215  0.0013  0.0003 -0.0018
  605SOL     OW 2417   0.413   2.833   1.248  0.2858 -0.0390  0.0587
  605SOL    HW1 2418   0.320   2.821   1.265  0.3319 -1.2304 -0.4413
  605SOL    HW2 2419   0.443   2.890   1.319 -0.6914 -0.1287  0.5647
  605SOL     MW 2420   0.405   2.839   1.259  0.0013  0.0003 -0.0018
  606SOL     OW 2421   2.692   0.579   1.748  0.3171 -0.1526 -0.0996
  606SOL    HW1 2422   2.713   0.639   1.677  2.1469  0.7822  1.1333
  606SOL    HW2 2423   2.693   0.634   1.827 -0.1608 -1.4182  0.8281
  606SOL     MW 2424   2.695   0.593   1.749  0.0013  0.0003 -0.0018
  607SOL     OW 2425   0.372   1.662   0.956  0.0320 -0.8640 -0.3682
  607SOL    HW1 2426   0.321   1.581   0.953  0.8818 -1.4198 -0.1706
  607SOL    HW2 2427   0.419   1.659   1.039  0.1806 -0.2383 -0.4204
  607SOL     MW 2428   0.372   1.651   0.966  0.0013  0.0003 -0.0018
  608SOL     OW 2429   1.429   1.409   0.684  0.1191  0.1913 -0.3005
  608SOL    HW1 2430   1.359   1.473   0.671  0.1139  0.5152  1.0820
  608SOL    HW2 2431   1.508   1.462   0.696  0.0657 -0.0008  1.1434
  608SOL     MW 2432   1.430   1.424   0.684  0.0013  0.0003 -0.0018
  609SOL     OW 2433   0.679   3.052   0.940 -0.2360 -0.7624  0.4322
  609SOL    HW1 2434   0.724   2.978   0.978  1.7568  0.5850  0.8342
  609SOL    HW2 2435   0.674   3.116   1.011  0.7200  0.5881 -0.6622
  609SOL     MW 2436   0.684   3.051   0.954  0.0013  0.0003 -0.0018
  610SOL     OW 2437   1.936   2.409   1.694 -0.0868  0.4287  0.4507
  610SOL    HW1 2438   2.016   2.413   1.747  0.1027 -2.7720  0.6433
  610SOL    HW2 2439   1.872   2.365   1.750 -0.4916 -1.2735 -1.2328
  610SOL     MW 2440   1.938   2.404   1.708  0.0013  0.0003 -0.0018
  611SOL     OW 2441   1.975   3.046   0.541  0.0119  0.1522 -0.4293
  611SOL    HW1 2442   1.962   3.053   0.635  0.4796 -0.2904 -0.3231
  611SOL    HW2 2443   2.070   3.032   0.531 -0.2001 -1.1614 -0.8602
  611SOL     MW 2444   1.986   3.045   0.552  0.0013  0.0003 -0.0018
  612SOL     OW 2445   1.329   1.848   1.278 -0.0013 -0.3007  0.3905
  612SOL    HW1 2446   1.254   1.876   1.330  1.1757  0.8254  1.5762
  612SOL    HW2 2447   1.376   1.930   1.258  0.4619 -0.8905 -1.0494
  612SOL     MW 2448   1.326   1.862   1.282  0.0013  0.0003 -0.0018
  613SOL     OW 2449   1.397   3.063   2.284 -0.1852 -0.0333  0.9534
  613SOL    HW1 2450   1.355   2.978   2.268  0.4508 -0.1206 -0.4500
  613SOL    HW2 2451   1.409   3.100   2.196  1.7363  0.4283  1.3733
  613SOL     MW 2452   1.393   3.057   2.270  0.0013  0.0003 -0.0018
  614SOL     OW 2453   0.212   1.361   0.640 -0.6703  0.0972  0.3344
  614SOL    HW1 2454   0.154   1.436   0.625 -0.1011  0.6884  0.9791
  614SOL    HW2 2455   0.279   1.395   0.699  0.4431 -0.5052 -0.5390
  614SOL     MW 2456   0.213   1.375   0.646  0.0013  0.0003 -0.0018
  615SOL     OW 2457   0.189   0.337   1.231  0.3058  0.1264 -0.3843
  615SOL    HW1 2458   0.188   0.247   1.200 -0.4248 -0.3663  0.9590
  615SOL    HW2 2459   0.107   0.375   1.199 -0.1872 -0.2160  0.4307
  615SOL     MW 2460   0.179   0.331   1.223  0.0013  0.0003 -0.0018
  616SOL     OW 2461   2.372   2.933   1.249  0.3510 -0.1186  0.4437
  616SOL    HW1 2462   2.296   2.963   1.199  1.2131 -0.7739 -1.3543
  616SOL    HW2 2463   2.394   2.848   1.211  3.4090  1.0651 -0.7753
  616SOL     MW 2464   2.365   2.926   1.238  0.0013  0.0003 -0.0018
  617SOL     OW 2465   2.319   2.460   1.257  0.2002 -0.4424 -0.2389
  617SOL    HW1 2466   2.357   2.429   1.340  0.8167  0.8641 -0.0110
  617SOL    HW2 2467   2.228   2.481   1.278  0.7873  1.4942  0.5636
  617SOL     MW 2468   2.312   2.459   1.271  0.0013  0.0003 -0.0018
  618SOL     OW 2469   0.354   1.624   1.405 -0.1985 -0.2049 -0.3597
  618SOL    HW1 2470   0.357   1.533   1.436  0.5520  0.2702  1.1108
  618SOL    HW2 2471   0.351   1.676   1.486 -2.1271  1.0535 -1.1909
  618SOL     MW 2472   0.354   1.619   1.420  0.0013  0.0003 -0.0018
  619SOL     OW 2473   1.942   0.093   1.452  0.1431  0.2517 -0.3326
  619SOL    HW1 2474   2.021   0.140   1.427 -0.0645  0.3060 -0.9129
  619SOL    HW2 2475   1.901   0.148   1.518  1.5729 -0.7043  1.4390
  619SOL     MW 2476   1.947   0.106   1.457  0.0013  0.0003 -0.0018
  620SOL     OW 2477   0.729   2.187   0.798  0.5565 -0.3892  0.0116
  620SOL    HW1 2478   0.802   2.173   0.737 -0.3372  1.7914 -1.6701
  620SOL    HW2 2479   0.767   2.239   0.868  1.1876 -1.4569  0.4914
  620SOL     MW 2480   0.744   2.192   0.799  0.0013  0.0003 -0.0018
  621SOL     OW 2481   2.972   0.547   2.755 -0.1544  0.3353 -0.0738
  621SOL    HW1 2482   2.929   0.498   2.684  1.7217  0.3956 -1.3255
  621SOL    HW2 2483   2.953   0.496   2.834 -1.4652 -0.2822 -0.7399
  621SOL     MW 2484   2.964   0.534   2.756  0.0013  0.0003 -0.0018
  622SOL     OW 2485   1.291   2.531   1.480 -0.0674  0.1595 -0.2614
  622SOL    HW1 2486   1.288   2.625   1.462  0.7350  0.0916 -0.7740
  622SOL    HW2 2487   1.250   2.521   1.566  1.3977  1.1757  0.5875
  622SOL     MW 2488   1.285   2.541   1.489  0.0013  0.0003 -0.0018
  623SOL     OW 2489   2.348   1.494   2.278  0.2980 -0.1670  0.1026
  623SOL    HW1 2490   2.424   1.553   2.277  0.5413 -0.4764 -1.3818
  623SOL    HW2 2491   2.370   1.428   2.344  0.7304  0.4791  0.6229
  623SOL     MW 2492   2.360   1.493   2.286  0.0013  0.0003 -0.0018
  624SOL     OW 2493   0.476   3.131   0.755  0.6945 -0.2019  0.4986
  624SOL    HW1 2494   0.544   3.080   0.799  1.6518 -0.0799 -0.7547
  624SOL    HW2 2495   0.441   3.072   0.688 -0.8229 -0.4323  1.4727
  624SOL     MW 2496   0.480   3.117   0.752  0.0013  0.0003 -0.0018
  625SOL     OW 2497   2.138   0.900   2.448 -0.4504 -0.3686 -0.2256
  625SOL    HW1 2498   2.067   0.947   2.491 -1.1411 -1.5018 -0.1053
  625SOL    HW2 2499   2.178   0.965   2.391  1.3842  1.6245  3.0072
  625SOL     MW 2500   2.134   0.914   2.446  0.0013  0.0003 -0.0018
  626SOL     OW 2501   2.753   0.674   1.019  0.3201  0.0092 -0.5885
  626SOL    HW1 2502   2.809   0.751   1.012  1.7477 -0.9481 -0.0942
  626SOL    HW2 2503   2.753   0.652   1.112 -0.3749 -0.3707 -0.6682
  626SOL     MW 2504   2.760   0.681   1.030  0.0013  0.0003 -0.0018
  627SOL     OW 2505   0.441   2.935   1.679  0.0192 -0.4233  0.5428
  627SOL    HW1 2506   0.363   2.881   1.693 -0.4749  0.0515 -0.3150
  627SOL    HW2 2507   0.440   2.956   1.586  0.7558  0.2303  0.6664
  627SOL     MW 2508   0.431   2.931   1.669  0.0013  0.0003 -0.0018
  628SOL     OW 2509   1.226   0.378   1.854 -0.0994  0.3938  0.5890
  628SOL    HW1 2510   1.237   0.392   1.760  0.8190  0.6446  0.7240
  628SOL    HW2 2511   1.287   0.440   1.895 -0.0580 -0.1266  1.3363
  628SOL     MW 2512   1.236   0.388   1.847  0.0013  0.0003 -0.0018
  629SOL     OW 2513   0.132   1.268   0.892  0.3005 -0.0669  0.3733
  629SOL    HW1 2514   0.211   1.215   0.902 -0.9371 -1.6365  2.8818
  629SOL    HW2 2515   0.137   1.302   0.803  2.7744 -1.7809 -0.2471
  629SOL     MW 2516   0.143   1.265   0.882  0.0013  0.0003 -0.0018
  630SOL     OW 2517   1.234   0.225   2.205  0.2224 -0.0463  0.2441
  630SOL    HW1 2518   1.323   0.233   2.238  0.0539 -0.5054  0.8060
  630SOL    HW2 2519   1.184   0.186   2.276 -0.6298  1.0173  0.2657
  630SOL     MW 2520   1.239   0.221   2.218  0.0013  0.0003 -0.0018
  631SOL     OW 2521   2.969   2.020   2.081  0.1231 -0.2353  0.2875
  631SOL    HW1 2522   2.891   1.969   2.101  0.5140 -0.9198  0.0777
  631SOL    HW2 2523   2.997   2.055   2.165 -1.8650  2.1735  0.0785
  631SOL     MW 2524   2.963   2.018   2.094  0.0013  0.0003 -0.0018
  632SOL     OW 2525   2.972   0.455   1.881  0.4647  0.1406 -0.3709
  632SOL    HW1 2526   3.042   0.516   1.904  0.0388  0.4002  0.2618
  632SOL    HW2 2527   2.906   0.467   1.949  0.0010 -0.4249 -0.7084
  632SOL     MW 2528   2.973   0.465   1.893  0.0013  0.0003 -0.0018
  633SOL     OW 2529   0.287   1.779   1.995  0.2605  0.5406  0.6185
  633SOL    HW1 2530   0.330   1.707   2.041  1.1177  1.0857  0.6842
  633SOL    HW2 2531   0.206   1.794   2.044 -0.3433 -0.9039  0.1370
  633SOL     MW 2532   0.282   1.771   2.007  0.0013  0.0003 -0.0018
  634SOL     OW 2533   2.011   1.987   2.323  0.2172 -0.2031 -0.9335
  634SOL    HW1 2534   2.100   2.022   2.323 -0.5115  1.7812 -0.8479
  634SOL    HW2 2535   1.957   2.059   2.355 -1.2974 -1.7367  0.1159
  634SOL     MW 2536   2.015   2.001   2.327  0.0013  0.0003 -0.0018
  635SOL     OW 2537   2.076   1.658   0.211  0.9187 -0.2676 -0.3934
  635SOL    HW1 2538   2.036   1.731   0.258 -0.1183  0.0255 -1.6779
  635SOL    HW2 2539   2.004   1.595   0.198  1.6681 -1.2728  0.2040
  635SOL     MW 2540   2.062   1.659   0.215  0.0013  0.0003 -0.0018
  636SOL     OW 2541   0.634   1.536   0.348  0.4254 -0.4677  0.4080
  636SOL    HW1 2542   0.650   1.590   0.426 -1.1929  0.2939  0.2414
  636SOL    HW2 2543   0.585   1.460   0.380  1.3702 -1.1005  0.3988
  636SOL     MW 2544   0.630   1.533   0.362  0.0013  0.0003 -0.0018
  637SOL     OW 2545   3.092   3.064   2.207 -0.1934  0.2076 -0.0308
  637SOL    HW1 2546   3.109   3.122   2.280 -1.3195 -0.3383  0.6957
  637SOL    HW2 2547   3.070   2.980   2.248 -1.2271 -0.0022 -0.9659
  637SOL     MW 2548   3.091   3.060   2.221  0.0013  0.0003 -0.0018
  638SOL     OW 2549   1.257   1.837   0.388  0.6356  0.0158  0.0349
  638SOL    HW1 2550   1.198   1.769   0.420  0.9487 -0.3264 -0.1024
  638SOL    HW2 2551   1.294   1.876   0.468  1.2245 -0.6663  0.1111
  638SOL     MW 2552   1.254   1.834   0.402  0.0013  0.0003 -0.0018
  639SOL     OW 2553   1.713   2.297   0.493  0.2222  0.1877  0.0531
  639SOL    HW1 2554   1.676   2.354   0.560  0.0886  1.2806 -0.9018
  639SOL    HW2 2555   1.682   2.210   0.515 -3.4423  1.0423 -0.9107
  639SOL     MW 2556   1.704   2.293   0.504  0.0013  0.0003 -0.0018
  640SOL     OW 2557   3.005   1.768   0.639  0.5998  0.0490 -0.1090
  640SOL    HW1 2558   3.027   1.792   0.549  0.0375  0.9531 -0.0172
  640SOL    HW2 2559   2.965   1.847   0.675  0.7180 -0.3475  0.8999
  640SOL     MW 2560   3.003   1.781   0.632  0.0013  0.0003 -0.0018
  641SOL     OW 2561   1.082   2.139   2.109 -0.1748  0.1983 -0.4924
  641SOL    HW1 2562   0.990   2.146   2.135  0.0238 -1.0093  0.6089
  641SOL    HW2 2563   1.130   2.132   2.191  0.8950  0.5585 -1.0654
  641SOL     MW 2564   1.076   2.139   2.123  0.0013  0.0003 -0.0018
  642SOL     OW 2565   2.757   0.509   2.080  0.7012  1.1499 -0.0579
  642SOL    HW1 2566   2.714   0.594   2.069  0.8764  1.2129 -0.2548
  642SOL    HW2 2567   2.687   0.445   2.066  0.1310  1.2739  1.8865
  642SOL     MW 2568   2.742   0.512   2.077  0.0013  0.0003 -0.0018
  643SOL     OW 2569   2.846   2.874   1.283 -0.3533  0.6813 -0.3034
  643SOL    HW1 2570   2.859   2.779   1.280 -1.9555  0.4225  0.0213
  643SOL    HW2 2571   2.917   2.906   1.340  2.3367  0.1661 -3.0998
  643SOL     MW 2572   2.857   2.866   1.290  0.0013  0.0003 -0.0018
  644SOL     OW 2573   0.917   0.678   2.993  1.0309  0.2528 -0.1131
  644SOL    HW1 2574   0.990   0.738   3.008  0.1757  1.5168 -0.8453
  644SOL    HW2 2575   0.866   0.719   2.924 -1.1222  0.0709  1.2917
  644SOL     MW 2576   0.920   0.691   2.986  0.0013  0.0003 -0.0018
  645SOL     OW 2577   0.595   0.540   0.810 -0.0894 -0.5016 -0.1634
  645SOL    HW1 2578   0.612   0.452   0.777  1.7509 -0.8886  1.6712
  645SOL    HW2 2579   0.607   0.533   0.905 -0.7092  1.5550  0.1098
  645SOL     MW 2580   0.598   0.528   0.818  0.0013  0.0003 -0.0018
  646SOL     OW 2581   2.074   0.131   1.160 -0.2911  0.4094 -0.1946
  646SOL    HW1 2582   2.052   0.186   1.085 -1.0474 -0.0021 -0.2932
  646SOL    HW2 2583   2.169   0.133   1.165 -0.1238 -0.6100 -1.9963
  646SOL     MW 2584   2.083   0.138   1.151  0.0013  0.0003 -0.0018
  647SOL     OW 2585   2.783   0.113   2.441 -0.4344 -0.0243 -0.2303
  647SOL    HW1 2586   2.759   0.114   2.348 -2.2610 -0.4727  0.1914
  647SOL    HW2 2587   2.701   0.128   2.487  0.4311  0.1528  1.3374
  647SOL     MW 2588   2.770   0.115   2.435  0.0013  0.0003 -0.0018
  648SOL     OW 2589   1.634   0.199   0.103  0.4684  0.3685  0.0686
  648SOL    HW1 2590   1.618   0.136   0.173  1.8775 -0.6522 -0.4886
  648SOL    HW2 2591   1.620   0.149   0.022 -0.0835  1.2459 -0.3929
  648SOL     MW 2592   1.630   0.184   0.102  0.0013  0.0003 -0.0018
  649SOL     OW 2593   2.247   0.360   2.181  0.2397  0.2196  0.7070
  649SOL    HW1 2594   2.325   0.374   2.235 -1.1886 -0.3188  3.0151
  649SOL    HW2 2595   2.230   0.266   2.188 -0.9674  0.4259  0.7216
  649SOL     MW 2596   2.255   0.350   2.189  0.0013  0.0003 -0.0018
  650SOL     OW 2597   2.605   3.068   2.711  0.3290 -0.1130 -0.0727
  650SOL    HW1 2598   2.628   2.990   2.762  2.5686 -0.1938 -1.0658
  650SOL    HW2 2599   2.586   3.034   2.623 -0.2015  0.3336 -0.1366
  650SOL     MW 2600   2.606   3.053   2.706  0.0013  0.0003 -0.0018
  651SOL     OW 2601   0.130   1.530   1.035  0.1603  0.0265 -0.3671
  651SOL    HW1 2602   0.062   1.569   0.980  0.9586  0.8998 -0.7609
  651SOL    HW2 2603   0.134   1.439   1.006  0.4884  0.4443 -1.7175
  651SOL     MW 2604   0.122   1.523   1.024  0.0013  0.0003 -0.0018
  652SOL     OW 2605   1.946   2.795   2.648 -0.5059 -0.2781 -0.5651
  652SOL    HW1 2606   1.923   2.832   2.733 -0.5524  1.3961 -1.2633
  652SOL    HW2 2607   2.027   2.746   2.665 -0.3540  0.2727  0.3748
  652SOL     MW 2608   1.954   2.793   2.661  0.0013  0.0003 -0.0018
  653SOL     OW 2609   0.548   1.581   3.057  0.4492  0.5455  0.1095
  653SOL    HW1 2610   0.504   1.565   3.141  0.4770  2.0509  0.4396
  653SOL    HW2 2611   0.594   1.500   3.038 -0.1695 -0.0774  1.1828
  653SOL     MW 2612   0.548   1.569   3.066  0.0013  0.0003 -0.0018
  654SOL     OW 2613   0.662   0.093   1.816  0.5687  0.3624  0.0602
  654SOL    HW1 2614   0.685   0.178   1.779  1.8102  0.6243  1.3449
  654SOL    HW2 2615   0.591   0.112   1.878  0.5781  0.3990  0.0597
  654SOL     MW 2616   0.656   0.107   1.819  0.0013  0.0003 -0.0018
  655SOL     OW 2617   2.217   0.758   1.187  0.2273  0.4116 -0.0840
  655SOL    HW1 2618   2.172   0.808   1.255 -0.6229  1.6204 -1.4721
  655SOL    HW2 2619   2.156   0.758   1.113  1.3536 -0.3812 -1.0540
  655SOL     MW 2620   2.203   0.764   1.186  0.0013  0.0003 -0.0018
  656SOL     OW 2621   2.758   1.390   2.276  0.0667  0.3836 -0.5139
  656SOL    HW1 2622   2.664   1.397   2.262  0.1354 -0.5144 -1.5945
  656SOL    HW2 2623   2.790   1.480   2.271 -0.7827  0.7564  0.3786
  656SOL     MW 2624   2.750   1.402   2.274  0.0013  0.0003 -0.0018
  657SOL     OW 2625   3.006   2.620   1.464 -0.2440 -0.0379 -0.3292
  657SOL    HW1 2626   2.927   2.654   1.505 -0.7719  1.1545 -2.2377
  657SOL    HW2 2627   2.983   2.606   1.372  0.8096 -2.8999 -0.2770
  657SOL     MW 2628   2.993   2.622   1.458  0.0013  0.0003 -0.0018
  658SOL     OW 2629   2.467   1.124   2.665 -0.2784  0.1592 -0.0541
  658SOL    HW1 2630   2.505   1.165   2.742 -0.2105  0.4072 -0.2185
  658SOL    HW2 2631   2.542   1.084   2.620 -0.0447  1.4660 -0.8866
  658SOL     MW 2632   2.482   1.124   2.669  0.0013  0.0003 -0.0018
  659SOL     OW 2633   0.230   0.437   1.845  0.2888 -0.3033  0.1625
  659SOL    HW1 2634   0.186   0.353   1.837 -1.5074  0.5824  0.2255
  659SOL    HW2 2635   0.208   0.468   1.933 -1.2676  1.3630 -0.7456
  659SOL     MW 2636   0.222   0.430   1.855  0.0013  0.0003 -0.0018
  660SOL     OW 2637   2.096   1.371   1.249  0.1241  0.2543 -0.5303
  660SOL    HW1 2638   2.044   1.390   1.171 -0.7617  1.1437  0.2445
  660SOL    HW2 2639   2.083   1.448   1.305  0.8797 -0.2934  0.4219
  660SOL     MW 2640   2.088   1.383   1.246  0.0013  0.0003 -0.0018
  661SOL     OW 2641   1.087   1.494   0.703 -0.0483  0.2846  0.6918
  661SOL    HW1 2642   1.049   1.409   0.682  0.1838  0.7056 -1.7780
  661SOL    HW2 2643   1.014   1.556   0.691  0.6738  0.8115 -1.5692
  661SOL     MW 2644   1.073   1.491   0.699  0.0013  0.0003 -0.0018
  662SOL     OW 2645   1.088   1.910   1.485  0.2259 -0.5195  0.2239
  662SOL    HW1 2646   1.100   1.984   1.426 -2.9190  0.2630  0.3736
  662SOL    HW2 2647   1.087   1.949   1.573 -0.9138 -0.7699  0.3394
  662SOL     MW 2648   1.089   1.925   1.489  0.0013  0.0003 -0.0018
  663SOL     OW 2649   1.915   0.691   2.841 -0.4059  0.4990 -0.2651
  663SOL    HW1 2650   1.820   0.679   2.843 -0.5521  1.5356 -0.3639
  663SOL    HW2 2651   1.927   0.786   2.841  0.6111  0.3911 -1.4482
  663SOL     MW 2652   1.904   0.702   2.841  0.0013  0.0003 -0.0018
  664SOL     OW 2653   1.809   2.856   0.980 -0.1773  0.8108 -0.8142
  664SOL    HW1 2654   1.862   2.820   1.052 -0.8659 -0.3188 -0.8467
  664SOL    HW2 2655   1.719   2.841   1.007 -0.4451  0.2826 -1.9522
  664SOL     MW 2656   1.804   2.849   0.993  0.0013  0.0003 -0.0018
  665SOL     OW 2657   1.252   0.246   2.686  0.0418 -0.0105 -0.0152
  665SOL    HW1 2658   1.189   0.311   2.653  0.8052  0.9099  0.2828
  665SOL    HW2 2659   1.335   0.294   2.689  0.5101 -0.8556  0.7436
  665SOL     MW 2660   1.254   0.260   2.682  0.0013  0.0003 -0.0018
  666SOL     OW 2661   2.656   0.622   2.841 -0.2261  0.3356 -0.0302
  666SOL    HW1 2662   2.731   0.657   2.890  1.0454 -1.6559 -0.4312
  666SOL    HW2 2663   2.584   0.621   2.905  0.6513  0.3914  0.9930
  666SOL     MW 2664   2.656   0.626   2.856  0.0013  0.0003 -0.0018
  667SOL     OW 2665   1.172   1.198   1.462  0.1077  0.3982 -0.2166
  667SOL    HW1 2666   1.236   1.263   1.433  1.0426  0.5068  1.9741
  667SOL    HW2 2667   1.089   1.231   1.427  1.0793  0.6250 -2.5119
  667SOL     MW 2668   1.169   1.211   1.454  0.0013  0.0003 -0.0018
  668SOL     OW 2669   0.713   2.931   1.278  0.2392 -0.2775  0.3670
  668SOL    HW1 2670   0.793   2.919   1.228 -0.4773 -0.6103 -0.7382
  668SOL    HW2 2671   0.643   2.929   1.212 -0.5083  2.9240  0.8923
  668SOL     MW 2672   0.714   2.929   1.263  0.0013  0.0003 -0.0018
  669SOL     OW 2673   0.125   0.424   1.494 -0.3862  0.0666  0.1589
  669SOL    HW1 2674   0.162   0.374   1.421 -1.0760 -2.2016  1.2410
  669SOL    HW2 2675   0.170   0.508   1.491 -0.1367 -0.0683 -2.6299
  669SOL     MW 2676   0.135   0.428   1.485  0.0013  0.0003 -0.0018
  670SOL     OW 2677   1.411   1.614   0.203 -0.3245 -0.2452 -0.1296
  670SOL    HW1 2678   1.365   1.540   0.242  1.4523 -0.9577  0.6626
  670SOL    HW2 2679   1.360   1.691   0.230 -1.1389 -1.0191  0.5707
  670SOL     MW 2680   1.398   1.615   0.211  0.0013  0.0003 -0.0018
  671SOL     OW 2681   1.034   0.098   0.734  0.0826  0.2109  0.2000
  671SOL    HW1 2682   1.129   0.112   0.725  0.0518 -0.2525 -1.0564
  671SOL    HW2 2683   1.001   0.183   0.762  1.1213 -0.2307  3.0666
  671SOL     MW 2684   1.042   0.111   0.736  0.0013  0.0003 -0.0018
  672SOL     OW 2685   3.069   1.425   1.638  0.4165  0.4098  0.3791
  672SOL    HW1 2686   3.042   1.342   1.678 -0.8538  1.3148  1.5046
  672SOL    HW2 2687   3.077   1.486   1.712  0.3783  1.5475 -0.5177
  672SOL     MW 2688   3.067   1.422   1.653  0.0013  0.0003 -0.0018
  673SOL     OW 2689   1.303   0.463   0.494 -0.4594 -0.0131  0.0917
  673SOL    HW1 2690   1.226   0.505   0.532 -1.8594  0.1455 -2.6558
  673SOL    HW2 2691   1.337   0.527   0.431  1.2246 -0.5714  0.3687
  673SOL     MW 2692   1.297   0.477   0.491  0.0013  0.0003 -0.0018
  674SOL     OW 2693   0.280   2.115   2.173 -0.2417 -0.7302  0.3188
  674SOL    HW1 2694   0.298   2.023   2.192  0.9802 -0.7545 -0.7833
  674SOL    HW2 2695   0.364   2.150   2.140 -0.7957  0.6560  0.3001
  674SOL     MW 2696   0.293   2.108   2.171  0.0013  0.0003 -0.0018
  675SOL     OW 2697   0.279   1.874   2.326  0.4296 -0.2914 -0.0029
  675SOL    HW1 2698   0.207   1.864   2.264  0.9250  1.1366 -0.8582
  675SOL    HW2 2699   0.238   1.866   2.412 -0.6657  0.0100 -0.4794
  675SOL     MW 2700   0.264   1.871   2.329  0.0013  0.0003 -0.0018
  676SOL     OW 2701   0.275   0.471   0.701 -0.3564 -0.2220  0.2816
  676SOL    HW1 2702   0.264   0.565   0.708 -1.2120 -0.3246  0.3358
  676SOL    HW2 2703   0.202   0.441   0.647  0.7462 -0.6690 -1.0458
  676SOL     MW 2704   0.264   0.479   0.695  0.0013  0.0003 -0.0018
  677SOL     OW 2705   2.499   2.645   0.143 -0.0115  0.0713 -0.2120
  677SOL    HW1 2706   2.429   2.710   0.151 -0.8512 -0.6845 -1.1408
  677SOL    HW2 2707   2.457   2.569   0.102  1.1919 -0.6671 -0.1310
  677SOL     MW 2708   2.485   2.643   0.139  0.0013  0.0003 -0.0018
  678SOL     OW 2709   0.101   2.757   2.986  0.3003  0.0673  0.1653
  678SOL    HW1 2710   0.109   2.783   2.895 -0.2107  0.0131  0.1017
  678SOL    HW2 2711   0.170   2.806   3.031  0.1395  0.5878 -0.1466
  678SOL     MW 2712   0.111   2.767   2.980  0.0013  0.0003 -0.0018
  679SOL     OW 2713   2.224   2.961   3.067 -0.0925  0.1792  0.3391
  679SOL    HW1 2714   2.146   3.009   3.040  1.5270  2.9893  0.2993
  679SOL    HW2 2715   2.251   2.912   2.989 -1.1139  0.1253  0.0056
  679SOL     MW 2716   2.218   2.961   3.054  0.0013  0.0003 -0.0018
  680SOL     OW 2717   2.013   2.922   1.406  0.5286  0.0869  0.3275
  680SOL    HW1 2718   2.078   2.880   1.463 -2.4412 -1.9827  2.4871
  680SOL    HW2 2719   2.013   3.014   1.434  2.3231  0.1111  0.3713
  680SOL     MW 2720   2.022   2.929   1.417  0.0013  0.0003 -0.0018
  681SOL     OW 2721   0.778   1.882   1.426  0.0275  0.4714  0.2570
  681SOL    HW1 2722   0.867   1.849   1.414 -0.2601 -0.0449 -0.5585
  681SOL    HW2 2723   0.778   1.919   1.515  1.0644  0.5403  0.2428
  681SOL     MW 2724   0.790   1.882   1.436  0.0013  0.0003 -0.0018
  682SOL     OW 2725   2.167   2.399   1.862  0.1085  0.3218  0.2584
  682SOL    HW1 2726   2.260   2.396   1.884  0.1639  1.2465  0.2134
  682SOL    HW2 2727   2.123   2.353   1.933  0.6263 -0.4578  0.0866
  682SOL     MW 2728   2.173   2.393   1.874  0.0013  0.0003 -0.0018
  683SOL     OW 2729   0.676   1.603   2.369 -0.0031 -0.3981 -0.2684
  683SOL    HW1 2730   0.676   1.515   2.331 -0.9274 -0.0756 -1.0425
  683SOL    HW2 2731   0.620   1.654   2.311 -2.2402 -0.0896  1.9954
  683SOL     MW 2732   0.669   1.598   2.357  0.0013  0.0003 -0.0018
  684SOL     OW 2733   1.628   1.008   0.941  0.5489  0.2524 -0.1833
  684SOL    HW1 2734   1.554   1.066   0.959  1.9725  2.9339 -2.1637
  684SOL    HW2 2735   1.700   1.045   0.991  0.8808 -1.6592  0.8509
  684SOL     MW 2736   1.628   1.020   0.949  0.0013  0.0003 -0.0018
  685SOL     OW 2737   2.662   2.381   2.169 -0.3260 -0.1395  0.2435
  685SOL    HW1 2738   2.747   2.417   2.193 -0.3621  0.1220 -0.0215
  685SOL    HW2 2739   2.681   2.315   2.103 -0.2275 -0.8519  0.9666
  685SOL     MW 2740   2.675   2.377   2.164  0.0013  0.0003 -0.0018
  686SOL     OW 2741   1.055   3.040   2.112 -0.8647 -0.0680 -0.2167
  686SOL    HW1 2742   1.001   3.102   2.064  0.1561  0.7188 -0.3831
  686SOL    HW2 2743   1.012   3.032   2.197 -2.0352 -0.5837 -0.8289
  686SOL     MW 2744   1.043   3.047   2.117  0.0013  0.0003 -0.0018
  687SOL     OW 2745   3.053   0.313   0.369  0.1636  0.2197 -0.0329
  687SOL    HW1 2746   2.959   0.319   0.349 -0.1862  0.2831  1.5405
  687SOL    HW2 2747   3.091   0.387   0.321 -0.5217 -0.0044 -0.9687
  687SOL     MW 2748   3.046   0.324   0.360  0.0013  0.0003 -0.0018
  688SOL     OW 2749   2.844   1.836   1.232  0.5258  0.1988  0.6343
  688SOL    HW1 2750   2.927   1.859   1.192  0.1944  0.0583 -0.1460
  688SOL    HW2 2751   2.778   1.876   1.175  0.0139 -0.7934  0.5034
  688SOL     MW 2752   2.846   1.844   1.220  0.0013  0.0003 -0.0018
  689SOL     OW 2753   1.880   0.323   1.031  0.3049 -0.1735  0.0746
  689SOL    HW1 2754   1.880   0.314   0.935 -0.2620 -3.1967  0.2554
  689SOL    HW2 2755   1.792   0.295   1.057  1.0905 -1.3974  1.5824
  689SOL     MW 2756   1.868   0.318   1.022  0.0013  0.0003 -0.0018
  690SOL     OW 2757   2.897   2.356   0.557 -0.9575 -0.0093  0.1202
  690SOL    HW1 2758   2.861   2.370   0.644  0.1710  1.0383  0.4376
  690SOL    HW2 2759   2.850   2.419   0.502  0.4991  1.5449  0.5835
  690SOL     MW 2760   2.886   2.366   0.561  0.0013  0.0003 -0.0018
  691SOL     OW 2761   1.724   1.296   0.612 -0.1940  0.0216 -0.0239
  691SOL    HW1 2762   1.684   1.381   0.626 -0.4726 -0.2522  0.9656
  691SOL    HW2 2763   1.817   1.310   0.631 -0.1741  0.1923 -0.2502
  691SOL     MW 2764   1.731   1.308   0.616  0.0013  0.0003 -0.0018
  692SOL     OW 2765   0.818   2.605   2.001 -0.4135 -0.8324  0.1803
  692SOL    HW1 2766   0.840   2.687   1.957 -2.4602  0.0116  0.6563
  692SOL    HW2 2767   0.828   2.538   1.932  1.0401 -0.2041 -0.2668
  692SOL     MW 2768   0.822   2.607   1.987  0.0013  0.0003 -0.0018
  693SOL     OW 2769   2.317   1.997   0.776 -0.4112  0.0564 -0.2702
  693SOL    HW1 2770   2.298   2.038   0.692  0.4494 -2.0560 -1.5427
  693SOL    HW2 2771   2.306   1.903   0.761  0.3180 -0.4187  1.8196
  693SOL     MW 2772   2.313   1.990   0.764  0.0013  0.0003 -0.0018
  694SOL     OW 2773   2.251   1.436   0.844 -0.1613 -0.0652 -0.2847
  694SOL    HW1 2774   2.304   1.412   0.768 -0.7187 -0.8111 -0.4472
  694SOL    HW2 2775   2.295   1.513   0.880  0.6054 -0.2265 -0.8461
  694SOL     MW 2776   2.263   1.443   0.839  0.0013  0.0003 -0.0018
  695SOL     OW 2777   2.256   0.855   0.017 -0.0757 -0.1924 -0.0383
  695SOL    HW1 2778   2.214   0.812   0.092  1.3896  0.0775  0.9828
  695SOL    HW2 2779   2.203   0.933   0.002 -1.6172 -1.3011 -0.6635
  695SOL     MW 2780   2.244   0.859   0.025  0.0013  0.0003 -0.0018
  696SOL     OW 2781   3.062   0.416   2.975  0.0802 -0.2603  0.6342
  696SOL    HW1 2782   3.037   0.483   3.038  1.3979  1.3224 -0.4559
  696SOL    HW2 2783   3.155   0.432   2.958 -0.2949 -0.4225 -1.9117
  696SOL     MW 2784   3.071   0.426   2.981  0.0013  0.0003 -0.0018
  697SOL     OW 2785   0.928   1.750   2.722 -0.3515 -0.3397  0.3047
  697SOL    HW1 2786   0.842   1.720   2.692 -0.2007 -2.6417  1.9272
  697SOL    HW2 2787   0.971   1.781   2.642 -2.8262  1.4210 -0.4788
  697SOL     MW 2788   0.923   1.750   2.708  0.0013  0.0003 -0.0018
  698SOL     OW 2789   1.535   0.372   0.593 -0.0578  0.4510  0.1218
  698SOL    HW1 2790   1.614   0.416   0.563 -0.6518  1.5735  0.1504
  698SOL    HW2 2791   1.463   0.428   0.564 -0.7944  0.0185  1.0302
  698SOL     MW 2792   1.536   0.385   0.586  0.0013  0.0003 -0.0018
  699SOL     OW 2793   1.988   2.145   0.167 -0.0607  0.7382  0.1892
  699SOL    HW1 2794   2.048   2.119   0.097 -0.4605  0.2536  0.0214
  699SOL    HW2 2795   1.909   2.173   0.121 -0.0880  1.0459  0.4230
  699SOL     MW 2796   1.986   2.145   0.152  0.0013  0.0003 -0.0018
  700SOL     OW 2797   2.580   2.674   1.988 -0.0811  0.3629 -0.1252
  700SOL    HW1 2798   2.650   2.738   1.998  1.4080 -1.2007 -0.1720
  700SOL    HW2 2799   2.499   2.727   1.991  1.0173  2.0909  0.9401
  700SOL     MW 2800   2.578   2.689   1.990  0.0013  0.0003 -0.0018
  701SOL     OW 2801   1.706   1.382   2.528  0.3106  0.3102 -0.0976
  701SOL    HW1 2802   1.640   1.445   2.555  0.4032  1.2230 -1.8489
  701SOL    HW2 2803   1.667   1.338   2.452  1.5015  0.5223 -0.8646
  701SOL     MW 2804   1.693   1.384   2.522  0.0013  0.0003 -0.0018
  702SOL     OW 2805   0.293   0.822   0.499 -0.2661 -0.4426  0.4797
  702SOL    HW1 2806   0.236   0.816   0.422 -0.6867  1.0310  0.6249
  702SOL    HW2 2807   0.315   0.915   0.504  0.8788 -0.7452  1.3522
  702SOL     MW 2808   0.288   0.833   0.489  0.0013  0.0003 -0.0018
  703SOL     OW 2809   0.718   0.772   0.680  0.2529  0.0175  0.2689
  703SOL    HW1 2810   0.674   0.708   0.735 -2.6432  1.5985 -0.0166
  703SOL    HW2 2811   0.699   0.856   0.721 -1.6398  1.2189 -2.7579
  703SOL     MW 2812   0.710   0.775   0.692  0.0013  0.0003 -0.0018
  704SOL     OW 2813   1.675   2.286   2.218 -0.2979 -0.1762 -0.6864
  704SOL    HW1 2814   1.742   2.328   2.164 -0.4568 -1.9740 -2.3914
  704SOL    HW2 2815   1.599   2.344   2.212  1.2689  2.4559  2.1368
  704SOL     MW 2816   1.674   2.299   2.211  0.0013  0.0003 -0.0018
  705SOL     OW 2817   0.609   0.185   1.112  0.4066  0.1326 -0.2378
  705SOL    HW1 2818   0.629   0.273   1.079  2.6966 -1.1477 -2.6422
  705SOL    HW2 2819   0.524   0.165   1.073 -0.1498  1.2444  0.3446
  705SOL     MW 2820   0.601   0.194   1.103  0.0013  0.0003 -0.0018
  706SOL     OW 2821   1.917   1.250   1.655  0.3508  0.4594 -0.3806
  706SOL    HW1 2822   1.919   1.184   1.724 -2.1736  1.3766  0.6950
  706SOL    HW2 2823   1.985   1.314   1.681  0.6428 -0.1000  0.2725
  706SOL     MW 2824   1.926   1.250   1.667  0.0013  0.0003 -0.0018
  707SOL     OW 2825   0.367   0.486   2.596 -0.0458 -0.1651  0.5583
  707SOL    HW1 2826   0.404   0.399   2.583 -1.0713 -0.2201 -3.4195
  707SOL    HW2 2827   0.274   0.476   2.578 -0.0726  1.7990 -0.8351
  707SOL     MW 2828   0.360   0.474   2.592  0.0013  0.0003 -0.0018
  708SOL     OW 2829   1.797   1.610   1.471 -0.2564 -0.2405  0.1427
  708SOL    HW1 2830   1.790   1.643   1.560 -0.6615  1.7891 -0.6016
  708SOL    HW2 2831   1.709   1.618   1.435  0.3408  1.0402 -1.1120
  708SOL     MW 2832   1.785   1.615   1.478  0.0013  0.0003 -0.0018
  709SOL     OW 2833   2.123   0.185   0.839  0.1860  0.1856  0.0905
  709SOL    HW1 2834   2.159   0.171   0.751  0.8662  0.7765  0.2658
  709SOL    HW2 2835   2.060   0.114   0.850  1.2972 -0.8886 -0.2214
  709SOL     MW 2836   2.119   0.174   0.829  0.0013  0.0003 -0.0018
  710SOL     OW 2837   1.839   2.196   2.405 -0.1192 -0.4830 -0.0555
  710SOL    HW1 2838   1.915   2.255   2.404 -0.3325 -0.2057  0.1817
  710SOL    HW2 2839   1.781   2.232   2.338 -0.2730 -0.3891  0.1267
  710SOL     MW 2840   1.842   2.209   2.396  0.0013  0.0003 -0.0018
  711SOL     OW 2841   2.543   1.485   1.697  0.3015  0.2727 -0.2738
  711SOL    HW1 2842   2.601   1.527   1.761  0.4851  1.3588 -1.1244
  711SOL    HW2 2843   2.500   1.558   1.652  0.4944 -0.4433 -1.6803
  711SOL     MW 2844   2.545   1.500   1.699  0.0013  0.0003 -0.0018
  712SOL     OW 2845   1.789   1.681   1.741 -0.4736 -0.0760  0.0723
  712SOL    HW1 2846   1.720   1.711   1.801 -1.2479  0.8935 -1.2455
  712SOL    HW2 2847   1.853   1.639   1.798 -0.9393  1.2243  1.6510
  712SOL     MW 2848   1.788   1.679   1.756  0.0013  0.0003 -0.0018
  713SOL     OW 2849   3.079   1.997   1.814  0.2527 -0.2007 -0.0578
  713SOL    HW1 2850   3.024   2.014   1.890  0.3864 -0.4061  0.0860
  713SOL    HW2 2851   3.026   2.025   1.739 -0.4651 -1.3226 -0.0007
  713SOL     MW 2852   3.065   2.003   1.814  0.0013  0.0003 -0.0018
  714SOL     OW 2853   3.012   1.080   0.710 -0.0219  0.2409  0.3332
  714SOL    HW1 2854   3.078   1.073   0.779  0.3751 -0.0615 -0.0669
  714SOL    HW2 2855   3.062   1.100   0.631 -0.4877  0.7312  0.1557
  714SOL     MW 2856   3.027   1.081   0.708  0.0013  0.0003 -0.0018
  715SOL     OW 2857   0.073   2.784   2.701  0.0694 -0.2754  0.3409
  715SOL    HW1 2858   0.047   2.875   2.690  1.2222 -0.0010 -0.2645
  715SOL    HW2 2859   0.016   2.735   2.641 -0.7172  0.0005  0.8483
  715SOL     MW 2860   0.062   2.789   2.692  0.0013  0.0003 -0.0018
  716SOL     OW 2861   0.078   2.605   2.049 -0.5021 -0.3607 -1.0161
  716SOL    HW1 2862   0.086   2.637   2.139 -0.7166  2.3741 -1.8533
  716SOL    HW2 2863   0.159   2.558   2.032 -0.5535 -1.0916  0.6526
  716SOL     MW 2864   0.089   2.603   2.058  0.0013  0.0003 -0.0018
  717SOL     OW 2865   0.491   0.639   2.133 -0.8704 -0.2333 -0.3551
  717SOL    HW1 2866   0.497   0.572   2.065  0.0748  0.4508 -0.9623
  717SOL    HW2 2867   0.536   0.715   2.097 -0.0848  0.0528  1.1440
  717SOL     MW 2868   0.497   0.640   2.120  0.0013  0.0003 -0.0018
  718SOL     OW 2869   1.317   0.854   1.950  0.2543 -0.4713 -0.8814
  718SOL    HW1 2870   1.384   0.922   1.943 -0.7373  0.6173 -0.1571
  718SOL    HW2 2871   1.241   0.899   1.988 -1.0472 -1.5523 -2.0984
  718SOL     MW 2872   1.316   0.868   1.954  0.0013  0.0003 -0.0018
  719SOL     OW 2873   2.814   1.541   1.214  0.0351 -0.0057 -0.0500
  719SOL    HW1 2874   2.828   1.631   1.243  0.4403  0.4207 -1.4703
  719SOL    HW2 2875   2.850   1.486   1.284  0.8983  0.9553  0.2770
  719SOL     MW 2876   2.820   1.545   1.226  0.0013  0.0003 -0.0018
  720SOL     OW 2877   1.396   0.510   2.844  0.3122  0.1349  0.6927
  720SOL    HW1 2878   1.400   0.574   2.773 -0.4740  0.6552  1.1104
  720SOL    HW2 2879   1.303   0.498   2.861  0.4053 -1.6659  0.1610
  720SOL     MW 2880   1.385   0.517   2.837  0.0013  0.0003 -0.0018
  721SOL     OW 2881   1.232   2.418   0.375 -0.0430  0.1291 -0.5371
  721SOL    HW1 2882   1.273   2.435   0.460 -1.6556  1.1668  0.0786
  721SOL    HW2 2883   1.149   2.465   0.379 -0.8991 -1.1702 -2.0681
  721SOL     MW 2884   1.227   2.426   0.386  0.0013  0.0003 -0.0018
  722SOL     OW 2885   0.025   0.678   1.021 -0.0854 -0.3004 -0.5905
  722SOL    HW1 2886   0.098   0.718   1.069 -0.2848 -0.7714  0.1119
  722SOL    HW2 2887  -0.017   0.751   0.976  1.6082 -0.1819 -2.0903
  722SOL     MW 2888   0.029   0.692   1.021  0.0013  0.0003 -0.0018
  723SOL     OW 2889   2.889   0.901   0.505 -0.1859 -0.2957 -0.1096
  723SOL    HW1 2890   2.863   0.991   0.526  0.8313 -0.2381  1.0222
  723SOL    HW2 2891   2.944   0.875   0.578  0.6000 -1.3877 -1.0572
  723SOL     MW 2892   2.893   0.909   0.517  0.0013  0.0003 -0.0018
  724SOL     OW 2893   1.980   1.551   1.926  0.5949 -0.1300 -0.2629
  724SOL    HW1 2894   2.071   1.578   1.917  0.2912  0.9634 -0.1466
  724SOL    HW2 2895   1.980   1.492   2.002  1.2985 -0.6227 -0.6362
  724SOL     MW 2896   1.992   1.547   1.935  0.0013  0.0003 -0.0018
  725SOL     OW 2897   0.071   1.841   2.148  0.3856  0.1681 -0.1297
  725SOL    HW1 2898  -0.004   1.894   2.121  0.1215 -0.2559 -0.2218
  725SOL    HW2 2899   0.036   1.778   2.211  0.2046 -1.4893 -1.7942
  725SOL     MW 2900   0.057   1.840   2.152  0.0013  0.0003 -0.0018
  726SOL     OW 2901   0.308   2.718   2.481 -0.1017  0.1966  0.2589
  726SOL    HW1 2902   0.376   2.653   2.465  1.4464  1.2298  2.2749
  726SOL    HW2 2903   0.322   2.784   2.413  1.6194  0.8866  1.2142
  726SOL     MW 2904   0.319   2.718   2.470  0.0013  0.0003 -0.0018
  727SOL     OW 2905   2.337   2.462   0.310 -0.0244  0.0133  0.2938
  727SOL    HW1 2906   2.255   2.420   0.337 -0.1695 -0.1650 -0.4132
  727SOL    HW2 2907   2.336   2.547   0.355 -1.0854  0.4404 -0.4879
  727SOL     MW 2908   2.326   2.468   0.319  0.0013  0.0003 -0.0018
  728SOL     OW 2909   1.628   2.413   1.499  0.0388  0.0333  0.1167
  728SOL    HW1 2910   1.545   2.429   1.453  0.7425  0.4180 -1.0757
  728SOL    HW2 2911   1.668   2.340   1.452  1.0894  0.8787 -0.3362
  728SOL     MW 2912   1.622   2.406   1.487  0.0013  0.0003 -0.0018
  729SOL     OW 2913   1.251   1.844   2.237  0.4648 -0.4287  0.2618
  729SOL    HW1 2914   1.264   1.766   2.182  1.8468  0.5628 -0.8908
  729SOL    HW2 2915   1.340   1.878   2.251 -0.0609  0.5869  1.3082
  729SOL     MW 2916   1.264   1.838   2.232  0.0013  0.0003 -0.0018
  730SOL     OW 2917   1.115   0.649   2.054 -0.2177  0.3398 -0.5295
  730SOL    HW1 2918   1.052   0.601   2.001 -0.3732  0.8658 -0.8230
  730SOL    HW2 2919   1.200   0.632   2.012 -0.3305  0.6908 -0.8979
  730SOL     MW 2920   1.118   0.641   2.042  0.0013  0.0003 -0.0018
  731SOL     OW 2921   0.574   0.362   3.022  0.2621  0.1161  0.0121
  731SOL    HW1 2922   0.515   0.289   3.040  0.3995 -0.4145 -1.5234
  731SOL    HW2 2923   0.633   0.365   3.098  0.8964 -2.0295 -0.3329
  731SOL     MW 2924   0.574   0.353   3.034  0.0013  0.0003 -0.0018
  732SOL     OW 2925   2.213   1.860   1.420  0.7271  0.1288 -0.2397
  732SOL    HW1 2926   2.178   1.883   1.506  1.7877  1.0442 -0.0270
  732SOL    HW2 2927   2.206   1.941   1.369  0.8460 -0.1832 -0.7607
  732SOL     MW 2928   2.208   1.874   1.425  0.0013  0.0003 -0.0018
  733SOL     OW 2929   1.041   2.581   2.173  0.0566  0.5182 -0.8021
  733SOL    HW1 2930   1.085   2.666   2.166 -1.2270  1.2767  0.0775
  733SOL    HW2 2931   0.972   2.584   2.106  0.2280  0.0103 -1.0092
  733SOL     MW 2932   1.038   2.593   2.163  0.0013  0.0003 -0.0018
  734SOL     OW 2933   0.474   1.903   1.146 -0.3873  0.2878 -0.3248
  734SOL    HW1 2934   0.517   1.946   1.220 -3.0758  1.2922  0.7900
  734SOL    HW2 2935   0.521   1.936   1.069  0.2903  1.9846  0.7561
  734SOL     MW 2936   0.485   1.913   1.146  0.0013  0.0003 -0.0018
  735SOL     OW 2937   2.549   2.088   0.213  0.3387 -0.5787  0.3654
  735SOL    HW1 2938   2.610   2.056   0.279  0.1822 -0.7289  0.4372
  735SOL    HW2 2939   2.540   2.181   0.233  0.1359 -0.6651  0.6818
  735SOL     MW 2940   2.556   2.096   0.224  0.0013  0.0003 -0.0018
  736SOL     OW 2941   1.950   2.522   0.417  0.1278 -0.3604  0.0979
  736SOL    HW1 2942   1.963   2.507   0.511 -1.6918 -1.7842  0.1794
  736SOL    HW2 2943   1.862   2.488   0.399  0.6066 -0.5399 -2.2254
  736SOL     MW 2944   1.940   2.516   0.427  0.0013  0.0003 -0.0018
  737SOL     OW 2945   1.763   0.248   2.046  0.2045 -0.3008  0.7444
  737SOL    HW1 2946   1.812   0.167   2.057  1.6694  0.4735  0.0985
  737SOL    HW2 2947   1.816   0.315   2.089 -0.4742  0.5076  0.3640
  737SOL     MW 2948   1.776   0.247   2.053  0.0013  0.0003 -0.0018
  738SOL     OW 2949   2.065   2.284   2.523 -0.0076 -0.0033 -0.3245
  738SOL    HW1 2950   2.085   2.284   2.616  1.3309  0.3551 -0.5896
  738SOL    HW2 2951   2.049   2.376   2.502  1.4846  0.1839 -0.7763
  738SOL     MW 2952   2.065   2.296   2.532  0.0013  0.0003 -0.0018
  739SOL     OW 2953   0.793   2.184   2.153  0.0782 -0.1946 -0.2407
  739SOL    HW1 2954   0.752   2.145   2.230 -1.9623  2.2283  0.0278
  739SOL    HW2 2955   0.776   2.277   2.161  1.8294  0.4258 -2.5066
  739SOL     MW 2956   0.786   2.191   2.163  0.0013  0.0003 -0.0018
  740SOL     OW 2957   2.338   0.570   2.679  0.1717  0.0366 -0.0127
  740SOL    HW1 2958   2.279   0.530   2.615  1.3315  1.3752 -2.0234
  740SOL    HW2 2959   2.309   0.661   2.686  0.4410  0.0611  0.9225
  740SOL     MW 2960   2.327   0.576   2.672  0.0013  0.0003 -0.0018
  741SOL     OW 2961   2.344   0.767   0.562  0.8202 -0.3958  0.6161
  741SOL    HW1 2962   2.291   0.699   0.603 -0.1865  1.1958  2.0601
  741SOL    HW2 2963   2.434   0.747   0.590  0.6258 -1.4632  0.5186
  741SOL     MW 2964   2.349   0.756   0.571  0.0013  0.0003 -0.0018
  742SOL     OW 2965   2.727   1.185   1.582  0.1012  0.4750 -0.3396
  742SOL    HW1 2966   2.690   1.111   1.630  2.7797 -1.0748 -0.4193
  742SOL    HW2 2967   2.661   1.207   1.517 -0.4107 -2.5830 -1.0079
  742SOL     MW 2968   2.714   1.178   1.580  0.0013  0.0003 -0.0018
  743SOL     OW 2969   1.557   1.674   1.920  0.1569 -0.1103 -0.2146
  743SOL    HW1 2970   1.524   1.662   2.009  0.3197  1.6009  0.1225
  743SOL    HW2 2971   1.563   1.586   1.884  0.2879 -0.8581  1.5402
  743SOL     MW 2972   1.554   1.661   1.927  0.0013  0.0003 -0.0018
  744SOL     OW 2973   0.331   1.807   1.678  1.0640  0.3303  0.4853
  744SOL    HW1 2974   0.263   1.823   1.743  1.7356  0.0915  1.2760
  744SOL    HW2 2975   0.371   1.893   1.664  0.8639  0.3974  0.3287
  744SOL     MW 2976   0.328   1.820   1.685  0.0013  0.0003 -0.0018
  745SOL     OW 2977   1.278   1.624   2.076 -0.5339 -0.0433 -0.2626
  745SOL    HW1 2978   1.250   1.626   1.984 -0.5665  1.3540 -0.2516
  745SOL    HW2 2979   1.211   1.573   2.121 -0.1086 -1.4076 -1.1292
  745SOL     MW 2980   1.266   1.618   2.070  0.0013  0.0003 -0.0018
  746SOL     OW 2981   0.635   0.789   1.405  0.0376 -0.1531 -0.0398
  746SOL    HW1 2982   0.728   0.777   1.419  0.3603  0.1319 -1.7380
  746SOL    HW2 2983   0.597   0.701   1.409  0.5267 -0.3749 -0.2799
  746SOL     MW 2984   0.642   0.776   1.407  0.0013  0.0003 -0.0018
  747SOL     OW 2985   0.898   2.385   0.651 -0.0471  0.1181 -0.3843
  747SOL    HW1 2986   0.860   2.406   0.566  0.0133  1.3526 -0.1230
  747SOL    HW2 2987   0.832   2.413   0.715  1.0523  1.8721  0.0592
  747SOL     MW 2988   0.885   2.391   0.649  0.0013  0.0003 -0.0018
  748SOL     OW 2989   2.234   0.295   0.339  0.0199  0.5765  0.3410
  748SOL    HW1 2990   2.241   0.262   0.250  0.1530  0.2258  0.4786
  748SOL    HW2 2991   2.141   0.311   0.352 -0.1144 -0.3152  0.4756
  748SOL     MW 2992   2.223   0.293   0.329  0.0013  0.0003 -0.0018
  749SOL     OW 2993   2.403   2.110   2.785 -0.0708  0.5891 -0.5647
  749SOL    HW1 2994   2.338   2.041   2.776  0.7338 -0.3204  0.3815
  749SOL    HW2 2995   2.406   2.129   2.878  0.7702  0.8374 -0.6265
  749SOL     MW 2996   2.395   2.104   2.796  0.0013  0.0003 -0.0018
  750SOL     OW 2997   1.938   0.975   1.790 -0.4990  0.3096  0.6333
  750SOL    HW1 2998   1.977   0.891   1.766  0.3255  0.9020 -0.1843
  750SOL    HW2 2999   1.994   1.009   1.859 -1.3008 -0.1662  1.5321
  750SOL     MW 3000   1.950   0.968   1.796  0.0013  0.0003 -0.0018
  751SOL     OW 3001   1.184   2.199   0.727  0.2869 -0.4765  0.0963
  751SOL    HW1 3002   1.104   2.164   0.688 -0.0428 -1.7139  1.7597
  751SOL    HW2 3003   1.175   2.180   0.821  1.7099  1.0196  0.5727
  751SOL     MW 3004   1.173   2.192   0.734  0.0013  0.0003 -0.0018
  752SOL     OW 3005   0.273   1.055   0.348  0.0314 -0.2937 -0.4727
  752SOL    HW1 3006   0.231   1.035   0.264  0.4956  0.4186 -0.8854
  752SOL    HW2 3007   0.348   1.110   0.324 -0.7749  1.3047  0.5427
  752SOL     MW 3008   0.277   1.059   0.334  0.0013  0.0003 -0.0018
  753SOL     OW 3009   1.209   2.413   2.337  0.2114  0.4101 -0.2764
  753SOL    HW1 3010   1.295   2.451   2.353  0.4008  1.2354 -2.8391
  753SOL    HW2 3011   1.166   2.474   2.277 -1.4039 -0.9527 -0.5910
  753SOL     MW 3012   1.214   2.426   2.331  0.0013  0.0003 -0.0018
  754SOL     OW 3013  -0.010   1.981   3.039  0.0385  0.2472 -0.4988
  754SOL    HW1 3014   0.046   1.903   3.038 -0.7923 -0.4108  0.9597
  754SOL    HW2 3015   0.044   2.048   3.080 -0.1768 -0.3650  0.8413
  754SOL     MW 3016   0.004   1.979   3.044  0.0013  0.0003 -0.0018
  755SOL     OW 3017   1.105   2.207   1.623 -0.1661 -0.0146  0.1325
  755SOL    HW1 3018   1.117   2.268   1.696 -1.3962  0.4776 -0.0403
  755SOL    HW2 3019   1.193   2.177   1.602  0.1764 -0.5978  2.1760
  755SOL     MW 3020   1.117   2.211   1.630  0.0013  0.0003 -0.0018
  756SOL     OW 3021   2.296   1.362   2.985 -0.8134 -0.1131 -0.8637
  756SOL    HW1 3022   2.389   1.341   2.994 -0.7256  0.2155 -1.0213
  756SOL    HW2 3023   2.258   1.338   3.070 -0.8895 -1.8257 -1.3372
  756SOL     MW 3024   2.303   1.356   2.997  0.0013  0.0003 -0.0018
  757SOL     OW 3025   0.759   2.439   1.358  0.1274 -0.3946  0.4497
  757SOL    HW1 3026   0.747   2.417   1.450  1.3483 -0.6829  0.5521
  757SOL    HW2 3027   0.678   2.409   1.316 -0.4262 -0.2854  1.4129
  757SOL     MW 3028   0.747   2.432   1.364  0.0013  0.0003 -0.0018
  758SOL     OW 3029   0.566   0.532   0.176  0.2764 -0.3401 -0.5151
  758SOL    HW1 3030   0.542   0.570   0.260  0.2861  0.1120 -0.7164
  758SOL    HW2 3031   0.606   0.448   0.199 -0.6791 -0.7044 -0.1277
  758SOL     MW 3032   0.568   0.526   0.190  0.0013  0.0003 -0.0018
  759SOL     OW 3033   3.091   2.285   0.078 -0.0337 -1.0392 -0.4794
  759SOL    HW1 3034   3.023   2.289   0.011  1.1240 -1.5031 -1.7143
  759SOL    HW2 3035   3.145   2.362   0.062  0.3961 -1.2852 -0.2248
  759SOL     MW 3036   3.089   2.295   0.067  0.0013  0.0003 -0.0018
  760SOL     OW 3037   2.956   2.825   0.685  0.4668  0.0125  0.4175
  760SOL    HW1 3038   2.939   2.918   0.702 -1.5124 -0.1006 -0.6499
  760SOL    HW2 3039   2.994   2.793   0.767 -0.9154  1.2834  1.6261
  760SOL     MW 3040   2.959   2.833   0.698  0.0013  0.0003 -0.0018
  761SOL     OW 3041   1.539   2.798   0.949 -0.1840  0.1202  0.2332
  761SOL    HW1 3042   1.523   2.773   1.040 -0.9375 -1.2624 -0.2485
  761SOL    HW2 3043   1.458   2.774   0.903  0.5362 -0.1066 -0.9709
  761SOL     MW 3044   1.526   2.792   0.954  0.0013  0.0003 -0.0018
  762SOL     OW 3045   2.110   0.457   1.536  0.2203  0.6009  0.4208
  762SOL    HW1 3046   2.146   0.394   1.598  0.7245  0.1647 -0.2945
  762SOL    HW2 3047   2.185   0.487   1.485 -0.4596 -0.9399 -1.6531
  762SOL     MW 3048   2.124   0.453   1.537  0.0013  0.0003 -0.0018
  763SOL     OW 3049   1.105   2.481   2.864 -0.0307  0.7842 -0.2521
  763SOL    HW1 3050   1.064   2.554   2.911 -0.3641  0.5682 -0.2047
  763SOL    HW2 3051   1.064   2.403   2.900  0.0992  0.5887 -0.5224
  763SOL     MW 3052   1.095   2.481   2.874  0.0013  0.0003 -0.0018
  764SOL     OW 3053   1.344   2.710   2.970  0.3022 -0.5732  1.1407
  764SOL    HW1 3054   1.311   2.653   3.038  0.3214  0.1296  1.7520
  764SOL    HW2 3055   1.376   2.651   2.901 -0.1197 -1.2745  1.5460
  764SOL     MW 3056   1.344   2.695   2.970  0.0013  0.0003 -0.0018
  765SOL     OW 3057   1.333   0.408   1.003  0.0903 -0.0224 -0.0338
  765SOL    HW1 3058   1.407   0.351   1.023  2.4728  1.9959 -2.3901
  765SOL    HW2 3059   1.338   0.478   1.068 -0.1063 -0.1720  0.1440
  765SOL     MW 3060   1.343   0.410   1.013  0.0013  0.0003 -0.0018
  766SOL     OW 3061   2.206   1.632   2.482  0.5044  0.1581 -0.2741
  766SOL    HW1 3062   2.232   1.586   2.402 -0.0960  1.0379 -0.9965
  766SOL    HW2 3063   2.121   1.594   2.505  0.5509  0.0993 -0.1948
  766SOL     MW 3064   2.199   1.621   2.475  0.0013  0.0003 -0.0018
  767SOL     OW 3065   1.321   0.039   0.974 -0.4321  0.3790 -0.0502
  767SOL    HW1 3066   1.312   0.075   0.886 -1.9339  0.9105  0.2839
  767SOL    HW2 3067   1.407  -0.003   0.975  0.9700  3.0006 -0.8082
  767SOL     MW 3068   1.331   0.038   0.963  0.0013  0.0003 -0.0018
  768SOL     OW 3069   2.957   0.220   1.744  0.1413 -0.4696 -0.4460
  768SOL    HW1 3070   2.977   0.304   1.785  0.7207 -1.5655  1.6790
  768SOL    HW2 3071   2.915   0.169   1.813 -1.5235 -1.4731 -2.1088
  768SOL     MW 3072   2.954   0.224   1.758  0.0013  0.0003 -0.0018
  769SOL     OW 3073   1.556   1.182   2.795  0.3393  0.0903 -0.3082
  769SOL    HW1 3074   1.650   1.193   2.807  0.3145  1.4614 -1.0689
  769SOL    HW2 3075   1.533   1.247   2.727 -1.4840  1.3005  1.3507
  769SOL     MW 3076   1.565   1.192   2.788  0.0013  0.0003 -0.0018
  770SOL     OW 3077   2.618   3.012   1.940  0.1404  0.0644 -0.0652
  770SOL    HW1 3078   2.619   3.058   1.856 -0.4761 -3.0298 -1.9034
  770SOL    HW2 3079   2.702   2.967   1.945 -0.6319 -1.4462 -0.0821
  770SOL     MW 3080   2.629   3.012   1.930  0.0013  0.0003 -0.0018
  771SOL     OW 3081   2.446   1.701   1.480 -0.5670  0.4605  0.5912
  771SOL    HW1 3082   2.375   1.743   1.431  0.7265  2.1034  0.0478
  771SOL    HW2 3083   2.501   1.662   1.413 -0.2225  0.3899  0.9152
  771SOL     MW 3084   2.444   1.702   1.465  0.0013  0.0003 -0.0018
  772SOL     OW 3085   1.279   0.845   0.415  0.5210  0.3772  0.7363
  772SOL    HW1 3086   1.229   0.817   0.338 -1.7984  2.5524  1.3195
  772SOL    HW2 3087   1.371   0.840   0.387 -0.0363 -1.8668 -1.0602
  772SOL     MW 3088   1.284   0.840   0.401  0.0013  0.0003 -0.0018
  773SOL     OW 3089   0.066   2.109   2.595  0.0716  0.0825  0.3234
  773SOL    HW1 3090   0.155   2.136   2.573 -0.2422  0.6857 -0.2677
  773SOL    HW2 3091   0.041   2.166   2.669  0.5018 -0.7349  1.1129
  773SOL     MW 3092   0.074   2.120   2.602  0.0013  0.0003 -0.0018
  774SOL     OW 3093   0.176   1.437   1.989  0.3734  0.2744  0.0559
  774SOL    HW1 3094   0.088   1.457   1.958  1.0817  2.8597 -0.5353
  774SOL    HW2 3095   0.193   1.347   1.960 -1.4118  0.3356 -1.2952
  774SOL     MW 3096   0.167   1.428   1.982  0.0013  0.0003 -0.0018
  775SOL     OW 3097   1.655   2.631   1.943  0.4549  0.5828  0.2279
  775SOL    HW1 3098   1.600   2.627   2.020  1.8832  1.8551  1.3869
  775SOL    HW2 3099   1.594   2.632   1.869 -0.9934  0.8840  1.3894
  775SOL     MW 3100   1.640   2.630   1.943  0.0013  0.0003 -0.0018
  776SOL     OW 3101   2.561   2.325   0.749 -0.2182  0.0347  0.0588
  776SOL    HW1 3102   2.471   2.357   0.753  0.2974  1.5614  0.0686
  776SOL    HW2 3103   2.573   2.277   0.831 -0.3532  1.7679  1.1447
  776SOL     MW 3104   2.551   2.323   0.760  0.0013  0.0003 -0.0018
  777SOL     OW 3105   3.067   2.409   0.902 -0.5265 -0.4049 -0.1119
  777SOL    HW1 3106   3.079   2.478   0.968  0.1791 -0.5200 -0.1101
  777SOL    HW2 3107   2.981   2.426   0.865 -0.6490  0.0674  0.3721
  777SOL     MW 3108   3.057   2.420   0.906  0.0013  0.0003 -0.0018
  778SOL     OW 3109   2.867   2.494   0.290 -0.1456 -0.2072 -1.1838
  778SOL    HW1 3110   2.901   2.408   0.268  0.6760 -0.1167 -0.2933
  778SOL    HW2 3111   2.855   2.537   0.205 -0.0341 -0.9889 -1.6063
  778SOL     MW 3112   2.870   2.489   0.276  0.0013  0.0003 -0.0018
  779SOL     OW 3113   0.909   0.076   1.929 -0.3852 -0.2145  0.0504
  779SOL    HW1 3114   0.816   0.058   1.919 -0.3982 -0.3295  0.3637
  779SOL    HW2 3115   0.912   0.155   1.984 -0.3437  1.0693 -1.7077
  779SOL     MW 3116   0.897   0.084   1.935  0.0013  0.0003 -0.0018
  780SOL     OW 3117   2.342   0.038   1.599  0.3380 -0.5768 -0.0353
  780SOL    HW1 3118   2.343  -0.053   1.569 -1.3449 -0.0793 -1.8326
  780SOL    HW2 3119   2.297   0.085   1.529 -0.3852  1.3430  1.6287
  780SOL     MW 3120   2.336   0.032   1.587  0.0013  0.0003 -0.0018
  781SOL     OW 3121   2.689   1.742   2.414 -0.5700  0.4676 -0.2596
  781SOL    HW1 3122   2.649   1.815   2.461 -0.1170  0.3375  0.3377
  781SOL    HW2 3123   2.624   1.672   2.419 -0.9432  0.7776 -0.7057
  781SOL     MW 3124   2.676   1.743   2.421  0.0013  0.0003 -0.0018
  782SOL     OW 3125   0.508   2.299   0.975  0.2218 -0.3087  0.5673
  782SOL    HW1 3126   0.442   2.235   0.950 -1.8528  2.1706 -0.7088
  782SOL    HW2 3127   0.540   2.335   0.893  1.4544  0.2387  1.2525
  782SOL     MW 3128   0.504   2.295   0.961  0.0013  0.0003 -0.0018
  783SOL     OW 3129   1.613   0.931   3.008 -0.1749  0.2599 -0.3146
  783SOL    HW1 3130   1.701   0.944   3.043 -0.0945  2.8798 -1.2406
  783SOL    HW2 3131   1.562   0.897   3.082  0.8109  2.1535  1.3321
  783SOL     MW 3132   1.618   0.929   3.022  0.0013  0.0003 -0.0018
  784SOL     OW 3133   1.473   2.701   1.734 -0.4049  0.3763 -0.4687
  784SOL    HW1 3134   1.488   2.747   1.651 -0.1472 -0.3238 -0.8224
  784SOL    HW2 3135   1.471   2.608   1.709 -0.8039  0.1894  0.2425
  784SOL     MW 3136   1.475   2.695   1.720  0.0013  0.0003 -0.0018
  785SOL     OW 3137   1.102   1.029   0.641 -0.4352  0.1522  0.4718
  785SOL    HW1 3138   1.078   0.957   0.583 -1.7964  0.1472  1.0119
  785SOL    HW2 3139   1.198   1.032   0.636 -0.4483 -0.6800 -0.7541
  785SOL     MW 3140   1.111   1.020   0.633  0.0013  0.0003 -0.0018
  786SOL     OW 3141   0.555   1.069   2.111 -0.0702 -0.8060 -0.3970
  786SOL    HW1 3142   0.471   1.082   2.155 -0.1057 -0.4441 -0.5677
  786SOL    HW2 3143   0.567   1.148   2.058  0.9484 -0.2866  0.5680
  786SOL     MW 3144   0.546   1.081   2.110  0.0013  0.0003 -0.0018
  787SOL     OW 3145   2.212   0.231   1.391  0.1599  0.3615  0.4650
  787SOL    HW1 3146   2.307   0.229   1.384  0.2217 -0.7924  1.3952
  787SOL    HW2 3147   2.193   0.317   1.430  1.1232 -0.7424  3.6767
  787SOL     MW 3148   2.221   0.242   1.395  0.0013  0.0003 -0.0018
  788SOL     OW 3149   2.799   3.070   1.088  0.3366  0.0689  0.0343
  788SOL    HW1 3150   2.816   3.157   1.123 -0.4175  0.5222 -0.7107
  788SOL    HW2 3151   2.819   3.011   1.161 -1.2280  0.9807  1.2596
  788SOL     MW 3152   2.804   3.073   1.102  0.0013  0.0003 -0.0018
  789SOL     OW 3153   0.662   1.609   2.068 -0.6187 -0.1399 -0.4502
  789SOL    HW1 3154   0.571   1.589   2.087 -0.7315 -0.9065 -1.7220
  789SOL    HW2 3155   0.679   1.690   2.117 -1.0418 -1.6259  2.3242
  789SOL     MW 3156   0.653   1.617   2.077  0.0013  0.0003 -0.0018
  790SOL     OW 3157   1.549   0.816   0.144 -0.3589 -0.3168 -0.8288
  790SOL    HW1 3158   1.570   0.726   0.122  0.0233 -0.0723 -1.5034
  790SOL    HW2 3159   1.553   0.819   0.240 -2.3329 -1.4624 -0.6562
  790SOL     MW 3160   1.552   0.805   0.154  0.0013  0.0003 -0.0018
  791SOL     OW 3161   0.670   1.939   0.100 -0.7684  0.0890  0.4758
  791SOL    HW1 3162   0.586   1.981   0.083  0.0071  1.2572 -0.6963
  791SOL    HW2 3163   0.685   1.885   0.022 -0.2834  0.1598  0.5172
  791SOL     MW 3164   0.661   1.937   0.088  0.0013  0.0003 -0.0018
  792SOL     OW 3165   1.728   0.879   1.407 -0.1735  0.0358  0.1660
  792SOL    HW1 3166   1.758   0.836   1.486 -0.1931  1.1621  0.8001
  792SOL    HW2 3167   1.784   0.844   1.337  0.3721 -0.3628  0.7964
  792SOL     MW 3168   1.739   0.869   1.408  0.0013  0.0003 -0.0018
  793SOL     OW 3169   2.908   0.541   1.338  0.3037 -0.2381  0.3411
  793SOL    HW1 3170   2.908   0.636   1.339 -1.1080 -0.2124 -0.2700
  793SOL    HW2 3171   2.918   0.516   1.430  2.2521  0.4465  0.3640
  793SOL     MW 3172   2.909   0.550   1.350  0.0013  0.0003 -0.0018
  794SOL     OW 3173   2.253   2.170   1.371  0.3123  0.5718 -0.1951
  794SOL    HW1 3174   2.341   2.140   1.392  1.3279  2.9693 -0.6294
  794SOL    HW2 3175   2.241   2.149   1.278  0.7080  0.8350 -0.3073
  794SOL     MW 3176   2.262   2.164   1.362  0.0013  0.0003 -0.0018
  795SOL     OW 3177   0.323   2.445   1.363 -0.2549 -0.4995 -0.7690
  795SOL    HW1 3178   0.236   2.410   1.346 -0.0674 -1.3983  0.0601
  795SOL    HW2 3179   0.383   2.377   1.332  0.1693  0.1510 -1.4252
  795SOL     MW 3180   0.320   2.432   1.357  0.0013  0.0003 -0.0018
  796SOL     OW 3181   2.852   1.281   0.172  0.2108 -0.0557  0.3329
  796SOL    HW1 3182   2.888   1.211   0.117  0.4555  0.2324  0.1254
  796SOL    HW2 3183   2.763   1.251   0.194  0.0695 -0.1219 -0.3146
  796SOL     MW 3184   2.845   1.268   0.168  0.0013  0.0003 -0.0018
  797SOL     OW 3185   1.798   1.226   2.959  0.3563  0.1400  0.3818
  797SOL    HW1 3186   1.792   1.183   3.044 -1.9646  1.0508  0.7537
  797SOL    HW2 3187   1.749   1.308   2.970  0.3645  0.4901 -1.7059
  797SOL     MW 3188   1.791   1.231   2.971  0.0013  0.0003 -0.0018
  798SOL     OW 3189   1.971   0.280   0.467 -0.5341 -0.0418 -0.1535
  798SOL    HW1 3190   1.912   0.325   0.407 -0.6410 -0.6680 -0.5271
  798SOL    HW2 3191   1.933   0.192   0.476  0.2540 -0.4005 -0.2838
  798SOL     MW 3192   1.958   0.274   0.461  0.0013  0.0003 -0.0018
  799SOL     OW 3193   2.080   2.543   2.446 -0.3449 -0.5692  0.4850
  799SOL    HW1 3194   2.035   2.615   2.402  1.6263 -0.0161 -0.7290
  799SOL    HW2 3195   2.154   2.522   2.389  0.8314 -1.5864  2.2886
  799SOL     MW 3196   2.083   2.549   2.433  0.0013  0.0003 -0.0018
  800SOL     OW 3197   1.128   0.667   0.820 -0.2747 -0.4428 -0.2942
  800SOL    HW1 3198   1.067   0.702   0.754  0.7298  0.0283 -0.9866
  800SOL    HW2 3199   1.127   0.573   0.805  1.6512 -0.1925 -2.5652
  800SOL     MW 3200   1.120   0.660   0.810  0.0013  0.0003 -0.0018
  801SOL     OW 3201   1.547   0.267   1.073  0.1121  0.2277 -0.5737
  801SOL    HW1 3202   1.534   0.191   1.130  1.9096  0.1294 -0.2428
  801SOL    HW2 3203   1.569   0.230   0.988 -1.4581  0.3906 -1.0880
  801SOL     MW 3204   1.548   0.252   1.069  0.0013  0.0003 -0.0018
  802SOL     OW 3205   0.031   2.398   1.334  0.0457 -0.2378  0.3240
  802SOL    HW1 3206   0.042   2.402   1.429  0.1044  0.0159  0.3073
  802SOL    HW2 3207  -0.020   2.318   1.320 -0.8981  0.2750  0.6627
  802SOL     MW 3208   0.026   2.388   1.345  0.0013  0.0003 -0.0018
  803SOL     OW 3209   0.997   3.071   0.482  0.2936  0.0787  0.4055
  803SOL    HW1 3210   1.021   3.087   0.574  1.7568 -0.5108  0.1607
  803SOL    HW2 3211   0.908   3.104   0.474 -0.1620 -0.6058  2.2514
  803SOL     MW 3212   0.989   3.077   0.493  0.0013  0.0003 -0.0018
  804SOL     OW 3213   0.832   2.648   1.611  0.6406  0.0446  0.3900
  804SOL    HW1 3214   0.830   2.730   1.660  1.0525 -0.0108  0.5043
  804SOL    HW2 3215   0.768   2.660   1.541  1.5372  0.9293 -0.3191
  804SOL     MW 3216   0.824   2.660   1.608  0.0013  0.0003 -0.0018
  805SOL     OW 3217   0.467   0.832   1.757 -0.2217  0.4940  0.8746
  805SOL    HW1 3218   0.379   0.802   1.734  0.5813 -0.7530 -0.8274
  805SOL    HW2 3219   0.523   0.757   1.738  1.7115  2.4443 -1.9955
  805SOL     MW 3220   0.463   0.819   1.752  0.0013  0.0003 -0.0018
  806SOL     OW 3221   0.475   2.964   2.533 -0.3045  0.4085  0.2206
  806SOL    HW1 3222   0.420   2.973   2.455 -0.4631 -0.0139  0.2807
  806SOL    HW2 3223   0.478   2.870   2.549 -1.0480  0.5507  1.2720
  806SOL     MW 3224   0.469   2.953   2.525  0.0013  0.0003 -0.0018
  807SOL     OW 3225   0.717   2.803   2.990  0.5515 -0.4658  0.6985
  807SOL    HW1 3226   0.656   2.826   3.061  0.0274 -0.8175  0.3740
  807SOL    HW2 3227   0.728   2.885   2.941  1.1363 -0.1487  1.3347
  807SOL     MW 3228   0.710   2.817   2.993  0.0013  0.0003 -0.0018
  808SOL     OW 3229   1.956   0.554   1.137 -0.0386  0.1280 -0.2832
  808SOL    HW1 3230   1.932   0.470   1.098  0.4334 -0.2164  0.1556
  808SOL    HW2 3231   1.937   0.543   1.230 -1.4643  1.0575 -0.4313
  808SOL     MW 3232   1.950   0.542   1.144  0.0013  0.0003 -0.0018
  809SOL     OW 3233   0.719   1.774   3.002  0.7614  0.1957  0.1800
  809SOL    HW1 3234   0.749   1.785   2.912  3.2200 -0.0034  0.8899
  809SOL    HW2 3235   0.655   1.702   2.998 -1.3259  2.0154 -1.7408
  809SOL     MW 3236   0.715   1.766   2.990  0.0013  0.0003 -0.0018
  810SOL     OW 3237   0.778   1.142   2.543  0.2867  0.4264  0.2121
  810SOL    HW1 3238   0.701   1.087   2.528  0.2006  0.7207 -0.4790
  810SOL    HW2 3239   0.754   1.198   2.618  0.1902 -0.1308  0.5986
  810SOL     MW 3240   0.765   1.142   2.551  0.0013  0.0003 -0.0018
  811SOL     OW 3241   0.146   1.763   3.056  0.1022 -0.6617  0.4012
  811SOL    HW1 3242   0.230   1.785   3.014 -0.1609  1.1480  0.7352
  811SOL    HW2 3243   0.171   1.717   3.136  0.7420 -0.8046  0.1308
  811SOL     MW 3244   0.160   1.760   3.060  0.0013  0.0003 -0.0018
  812SOL     OW 3245   0.350   1.134   2.282  0.2082 -0.6851 -0.3927
  812SOL    HW1 3246   0.295   1.118   2.206  1.8104 -2.5043 -1.2534
  812SOL    HW2 3247   0.318   1.073   2.348 -1.7052  1.4296  0.8178
  812SOL     MW 3248   0.339   1.124   2.281  0.0013  0.0003 -0.0018
  813SOL     OW 3249   1.919   0.403   0.732 -0.6808  0.0933  0.1047
  813SOL    HW1 3250   1.873   0.470   0.682 -1.6069 -1.1736 -0.7972
  813SOL    HW2 3251   1.948   0.339   0.667  0.3244 -0.3261  0.9252
  813SOL     MW 3252   1.917   0.403   0.717  0.0013  0.0003 -0.0018
  814SOL     OW 3253   1.745   0.809   1.140 -0.3312 -0.2296  0.3215
  814SOL    HW1 3254   1.737   0.888   1.087 -0.7918  0.3390  1.2260
  814SOL    HW2 3255   1.800   0.751   1.087 -0.6843  0.3599 -0.7326
  814SOL     MW 3256   1.751   0.811   1.126  0.0013  0.0003 -0.0018
  815SOL     OW 3257   2.165   1.321   2.143 -0.0029  0.3332 -0.3266
  815SOL    HW1 3258   2.179   1.248   2.203 -0.4154 -0.2818 -0.9692
  815SOL    HW2 3259   2.232   1.385   2.167  2.4175 -1.5131 -1.7342
  815SOL     MW 3260   2.175   1.320   2.153  0.0013  0.0003 -0.0018
  816SOL     OW 3261   1.267   0.916   2.847  0.4765  0.0157 -0.0419
  816SOL    HW1 3262   1.235   0.859   2.777 -1.5509 -0.2491  1.0215
  816SOL    HW2 3263   1.361   0.924   2.831  0.1335 -0.3392 -2.5455
  816SOL     MW 3264   1.275   0.909   2.836  0.0013  0.0003 -0.0018
  817SOL     OW 3265   1.302   1.718   2.947  0.4761  0.0567  0.3243
  817SOL    HW1 3266   1.326   1.796   2.996  1.2778  0.9306 -1.3674
  817SOL    HW2 3267   1.210   1.703   2.970 -0.1345  2.3511 -0.3404
  817SOL     MW 3268   1.293   1.726   2.956  0.0013  0.0003 -0.0018
  818SOL     OW 3269   2.312   0.522   1.347  0.2453  0.2612  0.7289
  818SOL    HW1 3270   2.407   0.528   1.362 -0.1267  2.1877  2.7523
  818SOL    HW2 3271   2.292   0.596   1.291 -0.0015 -0.5313 -0.2517
  818SOL     MW 3272   2.322   0.532   1.342  0.0013  0.0003 -0.0018
  819SOL     OW 3273   2.277   0.632   1.775 -0.1335  1.0458  0.7579
  819SOL    HW1 3274   2.198   0.680   1.750  0.6764  2.1111  0.2194
  819SOL    HW2 3275   2.249   0.540   1.776 -0.8684  1.1812 -1.5349
  819SOL     MW 3276   2.263   0.626   1.772  0.0013  0.0003 -0.0018
  820SOL     OW 3277   1.605   1.043   0.654 -0.0022 -0.5404  0.4259
  820SOL    HW1 3278   1.642   1.130   0.637 -1.2923 -0.0190  0.1393
  820SOL    HW2 3279   1.626   1.026   0.746  0.7196 -0.1636  0.3411
  820SOL     MW 3280   1.612   1.052   0.664  0.0013  0.0003 -0.0018
  821SOL     OW 3281   2.822   1.314   2.020  0.1545 -0.1554 -0.2297
  821SOL    HW1 3282   2.802   1.332   2.112 -0.2906 -0.2145 -0.3129
  821SOL    HW2 3283   2.867   1.229   2.022 -0.0265 -0.2505 -0.0814
  821SOL     MW 3284   2.825   1.305   2.032  0.0013  0.0003 -0.0018
  822SOL     OW 3285   2.235   2.968   0.498 -0.2139  0.1810  0.4356
  822SOL    HW1 3286   2.297   2.957   0.426 -0.2498  1.6737  0.1517
  822SOL    HW2 3287   2.281   3.022   0.562 -1.1472  1.2254  0.2666
  822SOL     MW 3288   2.249   2.973   0.497  0.0013  0.0003 -0.0018
  823SOL     OW 3289   0.053   0.928   0.901  0.3003 -0.1754 -0.2632
  823SOL    HW1 3290   0.100   0.883   0.831  1.3931  0.5428 -0.0114
  823SOL    HW2 3291   0.120   0.980   0.945 -0.3950 -0.4919  1.2262
  823SOL     MW 3292   0.068   0.929   0.898  0.0013  0.0003 -0.0018
  824SOL     OW 3293   1.014   2.259   2.968 -0.5107 -0.0229  0.5025
  824SOL    HW1 3294   0.938   2.260   3.026 -1.8670 -1.7408 -1.1209
  824SOL    HW2 3295   1.012   2.173   2.927  1.7809  0.2575 -0.3181
  824SOL     MW 3296   1.004   2.248   2.970  0.0013  0.0003 -0.0018
  825SOL     OW 3297   2.087   1.843   0.621 -0.5193 -0.6091  0.2172
  825SOL    HW1 3298   2.120   1.754   0.607 -0.1988 -0.5067  0.3209
  825SOL    HW2 3299   2.066   1.875   0.533  0.1163 -0.5005  0.0971
  825SOL     MW 3300   2.088   1.836   0.608  0.0013  0.0003 -0.0018
  826SOL     OW 3301   1.027   0.928   1.494 -0.0727  0.4700  0.2836
  826SOL    HW1 3302   1.079   1.007   1.488  2.7411 -1.1355  1.5840
  826SOL    HW2 3303   0.983   0.921   1.409  1.3230  2.2548 -0.6304
  826SOL     MW 3304   1.028   0.937   1.482  0.0013  0.0003 -0.0018
  827SOL     OW 3305   1.276   0.006   1.652 -0.3292 -0.3186 -0.3568
  827SOL    HW1 3306   1.368   0.010   1.629 -0.0715  1.9455  0.8435
  827SOL    HW2 3307   1.275  -0.006   1.747 -1.2964 -1.2125 -0.4580
  827SOL     MW 3308   1.287   0.005   1.661  0.0013  0.0003 -0.0018
  828SOL     OW 3309  -0.003   3.008   1.825  0.5714 -0.7484 -0.1184
  828SOL    HW1 3310  -0.053   3.055   1.758  0.0030 -1.8950 -0.5196
  828SOL    HW2 3311   0.085   3.045   1.820  0.1724  0.1904 -0.4881
  828SOL     MW 3312   0.002   3.019   1.816  0.0013  0.0003 -0.0018
  829SOL     OW 3313   3.017   2.847   2.350 -0.2137  0.3743 -0.0786
  829SOL    HW1 3314   2.939   2.814   2.306  0.8792 -0.4642 -1.4531
  829SOL    HW2 3315   3.074   2.771   2.360  0.7069  1.0891  0.3208
  829SOL     MW 3316   3.014   2.833   2.346  0.0013  0.0003 -0.0018
  830SOL     OW 3317   1.785   0.692   1.641  0.0225  0.2533  0.0953
  830SOL    HW1 3318   1.697   0.660   1.621  0.4377 -0.3396 -0.8346
  830SOL    HW2 3319   1.790   0.691   1.736 -0.7275 -0.3859  0.1346
  830SOL     MW 3320   1.774   0.688   1.650  0.0013  0.0003 -0.0018
  831SOL     OW 3321   1.813   1.306   2.034 -0.0162 -0.5440 -0.3003
  831SOL    HW1 3322   1.857   1.221   2.026  0.1961 -0.8150  2.7105
  831SOL    HW2 3323   1.722   1.283   2.054  0.1423 -0.1304  1.0024
  831SOL     MW 3324   1.807   1.292   2.036  0.0013  0.0003 -0.0018
  832SOL     OW 3325   1.512   1.656   1.425 -0.0891 -0.3077 -0.6816
  832SOL    HW1 3326   1.458   1.723   1.384 -0.4963 -1.9198 -3.0133
  832SOL    HW2 3327   1.470   1.573   1.401  2.0826 -1.5159 -0.5750
  832SOL     MW 3328   1.500   1.654   1.417  0.0013  0.0003 -0.0018
  833SOL     OW 3329   1.703   2.629   0.788  0.0848 -0.4959 -0.1776
  833SOL    HW1 3330   1.667   2.671   0.866  0.1287 -1.2347  0.2411
  833SOL    HW2 3331   1.654   2.669   0.715 -0.8008 -0.6830  0.3049
  833SOL     MW 3332   1.692   2.640   0.788  0.0013  0.0003 -0.0018
  834SOL     OW 3333   0.496   2.972   2.087  0.3985 -0.6169 -0.1238
  834SOL    HW1 3334   0.413   2.939   2.053  0.3499  0.7984 -1.4960
  834SOL    HW2 3335   0.509   3.056   2.042  1.6115  0.1361  1.5225
  834SOL     MW 3336   0.487   2.978   2.077  0.0013  0.0003 -0.0018
  835SOL     OW 3337   2.684   2.676   1.036 -0.1989  0.0328 -0.8761
  835SOL    HW1 3338   2.769   2.671   1.079 -0.5152  0.0332 -0.2315
  835SOL    HW2 3339   2.704   2.682   0.943  0.5439  1.6328 -0.6409
  835SOL     MW 3340   2.697   2.676   1.030  0.0013  0.0003 -0.0018
  836SOL     OW 3341   1.994   1.626   2.905 -0.6523 -0.0417 -0.1555
  836SOL    HW1 3342   2.028   1.546   2.865  2.3801  0.3845  1.2631
  836SOL    HW2 3343   1.990   1.689   2.833  0.1701 -0.5635 -0.6796
  836SOL     MW 3344   1.998   1.624   2.891  0.0013  0.0003 -0.0018
  837SOL     OW 3345   3.035   2.918   1.026  0.4196 -0.7291  0.5255
  837SOL    HW1 3346   3.095   2.956   0.962 -0.1266 -1.8272 -0.6979
  837SOL    HW2 3347   2.960   2.977   1.027 -0.1255 -1.3573 -0.8367
  837SOL     MW 3348   3.033   2.930   1.018  0.0013  0.0003 -0.0018
  838SOL     OW 3349   1.912   1.563   2.191 -0.1052 -0.0121 -0.3926
  838SOL    HW1 3350   1.886   1.480   2.151  1.9848 -0.3293 -1.2119
  838SOL    HW2 3351   1.980   1.540   2.254  0.9506  1.0957 -1.0679
  838SOL     MW 3352   1.918   1.550   2.194  0.0013  0.0003 -0.0018
  839SOL     OW 3353   1.077   2.986   2.704 -0.0174 -0.2802 -0.4988
  839SOL    HW1 3354   1.026   3.027   2.634  0.1521 -0.2321 -0.5968
  839SOL    HW2 3355   1.017   2.980   2.778 -0.2218 -0.4034 -0.6741
  839SOL     MW 3356   1.063   2.990   2.704  0.0013  0.0003 -0.0018
  840SOL     OW 3357   1.985   2.009   1.941 -0.2996 -0.0321  0.5099
  840SOL    HW1 3358   1.896   1.986   1.914 -0.8202  0.9811  1.2986
  840SOL    HW2 3359   2.009   1.942   2.005 -0.6443 -0.1013  0.5673
  840SOL     MW 3360   1.977   1.998   1.946  0.0013  0.0003 -0.0018
  841SOL     OW 3361   0.843   1.125   0.200  0.1779 -0.2447 -1.2681
  841SOL    HW1 3362   0.785   1.187   0.155 -1.1070  1.1347  1.9227
  841SOL    HW2 3363   0.932   1.153   0.176 -0.4141  0.0878 -3.2051
  841SOL     MW 3364   0.847   1.137   0.191  0.0013  0.0003 -0.0018
  842SOL     OW 3365   2.815   2.839   1.954 -0.1083  0.3102  0.0675
  842SOL    HW1 3366   2.887   2.796   1.907  1.3105  1.4646  1.0801
  842SOL    HW2 3367   2.823   2.808   2.044 -1.6084 -0.3974 -0.0129
  842SOL     MW 3368   2.825   2.830   1.959  0.0013  0.0003 -0.0018
  843SOL     OW 3369   0.838   1.787   0.974 -0.0800  0.0711 -0.0266
  843SOL    HW1 3370   0.779   1.855   0.939 -0.4515 -0.7340 -1.0308
  843SOL    HW2 3371   0.910   1.836   1.012 -0.8410  1.0618  0.1971
  843SOL     MW 3372   0.840   1.802   0.974  0.0013  0.0003 -0.0018
  844SOL     OW 3373   0.336   0.389   0.166  0.4839  0.2102  0.0772
  844SOL    HW1 3374   0.336   0.309   0.113 -1.3074  0.8927 -1.0053
  844SOL    HW2 3375   0.424   0.425   0.154  0.6335 -0.5085 -1.1211
  844SOL     MW 3376   0.348   0.384   0.158  0.0013  0.0003 -0.0018
  845SOL     OW 3377   0.122   2.957   0.839 -0.4947 -0.1692 -0.0101
  845SOL    HW1 3378   0.179   3.022   0.796 -1.6522  0.4293 -0.6720
  845SOL    HW2 3379   0.183   2.893   0.876  0.6631  0.9775  0.1543
  845SOL     MW 3380   0.137   2.957   0.838  0.0013  0.0003 -0.0018
  846SOL     OW 3381   2.916   2.618   1.210  0.3343  0.3568  0.0759
  846SOL    HW1 3382   2.864   2.540   1.191 -0.6506  1.3468 -1.5080
  846SOL    HW2 3383   2.984   2.618   1.142  0.4039  0.8083  0.1477
  846SOL     MW 3384   2.918   2.608   1.199  0.0013  0.0003 -0.0018
  847SOL     OW 3385   2.381   1.678   0.706  0.0531 -0.0339  0.0923
  847SOL    HW1 3386   2.431   1.597   0.704 -0.0281 -0.0695 -1.1201
  847SOL    HW2 3387   2.376   1.706   0.615  0.0684  1.3323  0.4867
  847SOL     MW 3388   2.387   1.671   0.694  0.0013  0.0003 -0.0018
  848SOL     OW 3389   0.942   2.912   1.092 -0.5373  0.4661 -0.1426
  848SOL    HW1 3390   0.992   2.981   1.136  1.9179 -0.2202 -1.6358
  848SOL    HW2 3391   1.000   2.836   1.094 -1.2786 -0.2307 -2.4998
  848SOL     MW 3392   0.956   2.911   1.098  0.0013  0.0003 -0.0018
  849SOL     OW 3393   2.566   0.434   0.896  0.2879  0.9808 -0.0098
  849SOL    HW1 3394   2.483   0.481   0.887  0.0463  0.4221 -0.7871
  849SOL    HW2 3395   2.623   0.473   0.830  0.5688  1.1838  0.3471
  849SOL     MW 3396   2.562   0.445   0.886  0.0013  0.0003 -0.0018
  850SOL     OW 3397   0.269   0.746   2.258  0.3415  0.4793 -0.3274
  850SOL    HW1 3398   0.295   0.791   2.338  2.0042 -0.6445 -0.1929
  850SOL    HW2 3399   0.351   0.711   2.222 -0.7633 -1.8454 -0.7707
  850SOL     MW 3400   0.283   0.747   2.263  0.0013  0.0003 -0.0018
  851SOL     OW 3401   2.837   0.333   2.633  0.5278  0.2953 -0.0250
  851SOL    HW1 3402   2.832   0.314   2.727 -1.1890  0.1413 -0.1105
  851SOL    HW2 3403   2.755   0.380   2.615 -0.3798 -1.8650 -1.9159
  851SOL     MW 3404   2.826   0.337   2.643  0.0013  0.0003 -0.0018
  852SOL     OW 3405   2.566   2.484   2.388  0.4268 -0.0235  0.2847
  852SOL    HW1 3406   2.482   2.528   2.381 -0.0532 -0.9355  0.1267
  852SOL    HW2 3407   2.583   2.449   2.300  1.9377  1.8175 -0.2236
  852SOL     MW 3408   2.558   2.485   2.376  0.0013  0.0003 -0.0018
  853SOL     OW 3409   0.881   0.831   2.191 -0.1756  0.4305  0.4144
  853SOL    HW1 3410   0.940   0.758   2.173  0.8245  1.1343  0.7629
  853SOL    HW2 3411   0.857   0.865   2.104  0.1743  0.3423  0.2838
  853SOL     MW 3412   0.885   0.826   2.177  0.0013  0.0003 -0.0018
  854SOL     OW 3413   2.370   1.261   1.688  0.2814  0.5106  0.2223
  854SOL    HW1 3414   2.296   1.321   1.680  0.1346  0.4573  1.0699
  854SOL    HW2 3415   2.446   1.318   1.696  0.5801  0.5779 -2.3888
  854SOL     MW 3416   2.370   1.276   1.688  0.0013  0.0003 -0.0018
  855SOL     OW 3417   2.086   0.180   2.398  0.2006 -0.1829  0.6537
  855SOL    HW1 3418   2.040   0.117   2.452 -1.9512  0.2397 -0.5758
  855SOL    HW2 3419   2.099   0.256   2.455 -0.8012 -0.2506  0.9856
  855SOL     MW 3420   2.082   0.182   2.412  0.0013  0.0003 -0.0018
  856SOL     OW 3421   2.322   0.997   1.109  0.2547  0.0022  0.3163
  856SOL    HW1 3422   2.290   0.908   1.124 -1.9791  0.6147 -0.3777
  856SOL    HW2 3423   2.413   0.994   1.136  0.3977 -2.6145 -0.1403
  856SOL     MW 3424   2.329   0.985   1.115  0.0013  0.0003 -0.0018
  857SOL     OW 3425   1.037   2.202   0.452  0.1022 -0.5307 -0.2637
  857SOL    HW1 3426   1.114   2.178   0.401 -0.5778 -1.4139 -0.9145
  857SOL    HW2 3427   1.050   2.294   0.474  0.6762 -0.2778 -1.5585
  857SOL     MW 3428   1.048   2.211   0.448  0.0013  0.0003 -0.0018
  858SOL     OW 3429   1.931   1.797   0.895  0.0317 -0.2064  0.8561
  858SOL    HW1 3430   1.981   1.879   0.894  1.1556 -0.8479  1.8149
  858SOL    HW2 3431   1.950   1.756   0.811  1.3334 -0.5529  1.3058
  858SOL     MW 3432   1.940   1.802   0.884  0.0013  0.0003 -0.0018
  859SOL     OW 3433   0.121   2.096   1.380 -0.3114  0.3060 -0.4944
  859SOL    HW1 3434   0.162   2.072   1.463 -2.5496 -0.8596  0.3520
  859SOL    HW2 3435   0.194   2.119   1.323  1.4121 -0.5451  1.2561
  859SOL     MW 3436   0.136   2.096   1.383  0.0013  0.0003 -0.0018
  860SOL     OW 3437   1.431   0.475   1.390 -0.5106  0.1080  0.5325
  860SOL    HW1 3438   1.498   0.414   1.357 -1.5432 -1.3181  0.9721
  860SOL    HW2 3439   1.473   0.518   1.464  1.2185  2.0551 -1.4325
  860SOL     MW 3440   1.445   0.472   1.395  0.0013  0.0003 -0.0018
  861SOL     OW 3441   0.491   1.077   2.548 -0.6339 -1.0585  0.2211
  861SOL    HW1 3442   0.539   1.074   2.466  0.8448 -0.6436  1.0377
  861SOL    HW2 3443   0.406   1.115   2.524 -0.1280 -0.6680 -1.0560
  861SOL     MW 3444   0.486   1.082   2.534  0.0013  0.0003 -0.0018
  862SOL     OW 3445   2.606   1.185   0.244  0.5049  0.5302 -0.2163
  862SOL    HW1 3446   2.581   1.108   0.193 -0.8050  1.2754 -0.7478
  862SOL    HW2 3447   2.533   1.198   0.305  1.1782  0.7750  0.5575
  862SOL     MW 3448   2.593   1.176   0.245  0.0013  0.0003 -0.0018
  863SOL     OW 3449   2.480   1.406   0.693  0.1330 -0.0470  0.1767
  863SOL    HW1 3450   2.474   1.317   0.726  0.4197 -0.6728 -1.4027
  863SOL    HW2 3451   2.554   1.405   0.632 -0.9687  0.7882 -1.2521
  863SOL     MW 3452   2.489   1.395   0.689  0.0013  0.0003 -0.0018
  864SOL     OW 3453   3.023   1.220   1.040 -0.6033  0.2584  0.5554
  864SOL    HW1 3454   3.066   1.265   1.112 -0.4179 -0.5566  0.9694
  864SOL    HW2 3455   3.089   1.216   0.971 -1.2568  2.3811 -0.2632
  864SOL     MW 3456   3.037   1.225   1.040  0.0013  0.0003 -0.0018
  865SOL     OW 3457   0.413   0.683   3.095 -0.0841 -0.2484 -0.4218
  865SOL    HW1 3458   0.480   0.653   3.156 -0.1251  0.7274  0.1205
  865SOL    HW2 3459   0.441   0.649   3.010  1.7229  1.0656 -0.4113
  865SOL     MW 3460   0.425   0.675   3.092  0.0013  0.0003 -0.0018
  866SOL     OW 3461   1.848   3.084   2.130 -0.0717  0.0783 -0.1669
  866SOL    HW1 3462   1.829   3.072   2.223  1.5529  1.1506  0.3371
  866SOL    HW2 3463   1.782   3.031   2.086 -1.5029  0.3088  1.5559
  866SOL     MW 3464   1.837   3.076   2.136  0.0013  0.0003 -0.0018
  867SOL     OW 3465   0.465   1.105   0.641  0.0784 -0.4733 -0.3739
  867SOL    HW1 3466   0.481   1.058   0.559  0.6144 -2.5761  0.8485
  867SOL    HW2 3467   0.525   1.064   0.704 -0.7962  0.6002  1.2345
  867SOL     MW 3468   0.475   1.093   0.639  0.0013  0.0003 -0.0018
  868SOL     OW 3469   2.232   1.585   1.870  0.4495  0.1832 -0.1165
  868SOL    HW1 3470   2.247   1.679   1.875 -0.4429  0.3120  0.5521
  868SOL    HW2 3471   2.289   1.547   1.936 -0.8275  0.5007  1.2304
  868SOL     MW 3472   2.241   1.592   1.879  0.0013  0.0003 -0.0018
  869SOL     OW 3473   1.128   0.253   1.082 -0.1495 -0.0111 -0.7747
  869SOL    HW1 3474   1.191   0.321   1.057  0.2292 -0.1533 -0.2095
  869SOL    HW2 3475   1.163   0.173   1.044 -0.2566 -0.0007 -0.8940
  869SOL     MW 3476   1.140   0.252   1.074  0.0013  0.0003 -0.0018
  870SOL     OW 3477   0.901   0.034  -0.015 -0.0734 -0.0289  0.3127
  870SOL    HW1 3478   0.842   0.043   0.060 -0.5358 -2.5131  0.3369
  870SOL    HW2 3479   0.987   0.057   0.019 -0.5209  0.4387  1.1701
  870SOL     MW 3480   0.904   0.038  -0.001  0.0013  0.0003 -0.0018
  871SOL     OW 3481   0.414   1.904   0.461  0.0714  0.0987 -0.4280
  871SOL    HW1 3482   0.442   1.982   0.508  0.6552 -1.1269  1.3536
  871SOL    HW2 3483   0.492   1.876   0.412  1.3592 -1.8079  2.4483
  871SOL     MW 3484   0.428   1.910   0.461  0.0013  0.0003 -0.0018
  872SOL     OW 3485   1.555   3.075   0.747  0.4983 -0.9354 -0.0029
  872SOL    HW1 3486   1.540   2.980   0.749  4.7261 -1.8598 -2.2066
  872SOL    HW2 3487   1.551   3.098   0.655 -2.4942  1.6412  0.5977
  872SOL     MW 3488   1.552   3.066   0.736  0.0013  0.0003 -0.0018
  873SOL     OW 3489   2.499   0.166   2.404  0.0710  0.0783 -0.1343
  873SOL    HW1 3490   2.441   0.155   2.478  1.8535 -2.4553  1.0585
  873SOL    HW2 3491   2.477   0.093   2.345  1.1390 -0.1583 -0.2660
  873SOL     MW 3492   2.489   0.155   2.406  0.0013  0.0003 -0.0018
  874SOL     OW 3493   0.919   1.794   0.155 -0.5775  0.7433 -0.6081
  874SOL    HW1 3494   0.987   1.862   0.156 -1.2951  1.4884  1.2009
  874SOL    HW2 3495   0.842   1.839   0.119  0.0966 -0.4325 -3.8864
  874SOL     MW 3496   0.918   1.809   0.150  0.0013  0.0003 -0.0018
  875SOL     OW 3497   2.820   1.556   0.636 -0.6717  0.0119 -0.2439
  875SOL    HW1 3498   2.847   1.498   0.706 -1.1561 -0.4512 -0.4300
  875SOL    HW2 3499   2.881   1.630   0.640 -0.0318 -0.5224 -0.0248
  875SOL     MW 3500   2.831   1.558   0.645  0.0013  0.0003 -0.0018
  876SOL     OW 3501   1.716   1.377   1.555 -0.2227 -0.1755 -0.0882
  876SOL    HW1 3502   1.741   1.461   1.516 -1.3209  0.2839  0.1771
  876SOL    HW2 3503   1.799   1.331   1.567  0.3104  0.4575 -1.1632
  876SOL     MW 3504   1.730   1.382   1.551  0.0013  0.0003 -0.0018
  877SOL     OW 3505   2.897  -0.023   0.690  0.4701 -0.7385 -0.1463
  877SOL    HW1 3506   2.928  -0.017   0.599  2.8310 -1.7564  0.5214
  877SOL    HW2 3507   2.897   0.068   0.721  1.1747 -0.5514 -0.6772
  877SOL     MW 3508   2.901  -0.010   0.682  0.0013  0.0003 -0.0018
  878SOL     OW 3509   2.629   0.411   1.180 -0.2198  0.1434 -0.3561
  878SOL    HW1 3510   2.603   0.495   1.219 -0.0636 -0.2999  0.7404
  878SOL    HW2 3511   2.632   0.428   1.086  1.6116  1.8686 -0.0451
  878SOL     MW 3512   2.626   0.424   1.173  0.0013  0.0003 -0.0018
  879SOL     OW 3513   2.431   3.095   0.067  0.2782  0.1114  0.5247
  879SOL    HW1 3514   2.483   3.109  -0.012  0.9079 -0.9927  0.7331
  879SOL    HW2 3515   2.354   3.047   0.038  0.9988 -1.1986  0.7151
  879SOL     MW 3516   2.428   3.091   0.053  0.0013  0.0003 -0.0018
  880SOL     OW 3517   0.381   0.702   0.925  0.1002 -0.2475 -0.0182
  880SOL    HW1 3518   0.428   0.623   0.897 -1.1977 -0.9175 -0.3767
  880SOL    HW2 3519   0.329   0.673   1.000  0.3420  0.5231  0.4617
  880SOL     MW 3520   0.381   0.688   0.931  0.0013  0.0003 -0.0018
  881SOL     OW 3521   1.835   2.422   3.084 -0.1988  0.0682  0.0479
  881SOL    HW1 3522   1.918   2.441   3.040  0.6839 -0.5109  1.4198
  881SOL    HW2 3523   1.769   2.456   3.024  0.9321 -0.8530 -1.8092
  881SOL     MW 3524   1.837   2.429   3.071  0.0013  0.0003 -0.0018
  882SOL     OW 3525   2.783   1.367   2.880  0.9997  0.0778  0.4066
  882SOL    HW1 3526   2.872   1.335   2.898 -0.1376 -2.9086  1.4542
  882SOL    HW2 3527   2.755   1.407   2.963  0.9619 -0.1171  0.4902
  882SOL     MW 3528   2.791   1.368   2.893  0.0013  0.0003 -0.0018
  883SOL     OW 3529   1.610   1.724   0.027 -0.5125  0.3384  0.3372
  883SOL    HW1 3530   1.663   1.651  -0.005  0.9977  1.9335 -0.9297
  883SOL    HW2 3531   1.531   1.681   0.062  1.5098 -2.1193  2.3040
  883SOL     MW 3532   1.606   1.709   0.027  0.0013  0.0003 -0.0018
  884SOL     OW 3533   2.957   1.966   2.821 -0.1624 -0.1039 -0.4436
  884SOL    HW1 3534   3.005   1.948   2.902  0.9370 -0.4009 -1.1411
  884SOL    HW2 3535   2.879   1.911   2.827  0.2601 -0.6572  0.0949
  884SOL     MW 3536   2.953   1.957   2.832  0.0013  0.0003 -0.0018
  885SOL     OW 3537   1.908   0.961   2.581 -0.0770 -0.4797  0.3404
  885SOL    HW1 3538   1.832   0.905   2.569 -0.5905 -0.0114  1.2578
  885SOL    HW2 3539   1.926   0.958   2.675  0.4901  0.1116  0.2639
  885SOL     MW 3540   1.901   0.953   2.592  0.0013  0.0003 -0.0018
  886SOL     OW 3541   2.331   0.583   0.876 -0.5794  0.0174  0.5722
  886SOL    HW1 3542   2.295   0.538   0.953 -1.1342 -1.4260 -0.4787
  886SOL    HW2 3543   2.256   0.630   0.839 -0.1830  1.1896  1.2077
  886SOL     MW 3544   2.317   0.583   0.881  0.0013  0.0003 -0.0018
  887SOL     OW 3545   2.912   2.196   1.320  0.5730  0.1457  0.5384
  887SOL    HW1 3546   2.951   2.136   1.256 -0.0241  1.5718 -1.2527
  887SOL    HW2 3547   2.957   2.176   1.402  1.9616 -1.2143 -0.4979
  887SOL     MW 3548   2.923   2.186   1.323  0.0013  0.0003 -0.0018
  888SOL     OW 3549   2.961   0.830   0.247 -0.0324 -0.6045 -0.0389
  888SOL    HW1 3550   2.871   0.812   0.222 -0.6102  0.7131  0.9331
  888SOL    HW2 3551   2.954   0.867   0.335  1.3905  0.1297 -0.2052
  888SOL     MW 3552   2.949   0.833   0.255  0.0013  0.0003 -0.0018
  889SOL     OW 3553   2.733   1.849   2.043  0.0576 -0.5530 -0.5157
  889SOL    HW1 3554   2.652   1.897   2.063 -0.4424 -1.3234 -0.6207
  889SOL    HW2 3555   2.727   1.830   1.950 -0.5041 -2.1252 -0.1913
  889SOL     MW 3556   2.722   1.853   2.034  0.0013  0.0003 -0.0018
  890SOL     OW 3557   2.733   0.180   1.540 -0.3492 -0.1530  0.2309
  890SOL    HW1 3558   2.797   0.196   1.609 -0.6682  0.1970  0.4444
  890SOL    HW2 3559   2.773   0.217   1.461 -0.0856 -0.3505  0.2698
  890SOL     MW 3560   2.746   0.187   1.538  0.0013  0.0003 -0.0018
  891SOL     OW 3561   2.479   0.808   2.298  0.2332 -0.6380 -0.4250
  891SOL    HW1 3562   2.551   0.753   2.329 -0.4291 -1.1200  0.3097
  891SOL    HW2 3563   2.401   0.754   2.309 -0.2867 -0.0009 -0.8820
  891SOL     MW 3564   2.478   0.794   2.304  0.0013  0.0003 -0.0018
  892SOL     OW 3565   0.265   0.127   2.851  0.1765  0.8449 -0.3706
  892SOL    HW1 3566   0.170   0.120   2.862  0.3850 -0.0310  1.1624
  892SOL    HW2 3567   0.277   0.137   2.757 -1.3716 -0.5131 -0.7708
  892SOL     MW 3568   0.254   0.128   2.840  0.0013  0.0003 -0.0018
  893SOL     OW 3569   1.953   1.831   2.716 -0.5742  0.2787 -0.2413
  893SOL    HW1 3570   1.934   1.916   2.754 -0.7456  0.4155 -0.6280
  893SOL    HW2 3571   1.892   1.823   2.642 -0.1210  0.0979 -0.6016
  893SOL     MW 3572   1.943   1.841   2.711  0.0013  0.0003 -0.0018
  894SOL     OW 3573   1.111   1.764   1.142  0.4506 -0.0081  0.0272
  894SOL    HW1 3574   1.130   1.705   1.069  0.1093 -2.4573  1.7770
  894SOL    HW2 3575   1.197   1.787   1.177  0.5788  0.1901 -0.4174
  894SOL     MW 3576   1.124   1.759   1.137  0.0013  0.0003 -0.0018
  895SOL     OW 3577   0.816   1.003   1.682 -0.3985 -0.4502 -0.3471
  895SOL    HW1 3578   0.869   1.080   1.660  0.8815 -0.7765  1.3476
  895SOL    HW2 3579   0.859   0.930   1.637 -0.3906 -0.4756 -0.2981
  895SOL     MW 3580   0.828   1.004   1.674  0.0013  0.0003 -0.0018
  896SOL     OW 3581   3.030   0.638   0.031  0.0982  0.3829 -0.2238
  896SOL    HW1 3582   3.010   0.673   0.118 -0.2330 -1.3183  0.4171
  896SOL    HW2 3583   2.955   0.666  -0.023 -0.3590  0.3026  0.3614
  896SOL     MW 3584   3.018   0.646   0.035  0.0013  0.0003 -0.0018
  897SOL     OW 3585   1.479   0.638   0.391  0.2569  0.0116  0.0223
  897SOL    HW1 3586   1.492   0.597   0.306  1.1608  0.9567 -0.3121
  897SOL    HW2 3587   1.567   0.647   0.428 -0.0351  0.4757  0.6390
  897SOL     MW 3588   1.492   0.634   0.385  0.0013  0.0003 -0.0018
  898SOL     OW 3589   1.503   1.922   2.221 -0.1735  0.3020 -0.3292
  898SOL    HW1 3590   1.545   1.975   2.289 -0.8749  1.3274 -0.6671
  898SOL    HW2 3591   1.564   1.850   2.206 -0.3745 -0.4276  1.9498
  898SOL     MW 3592   1.516   1.920   2.228  0.0013  0.0003 -0.0018
  899SOL     OW 3593   2.227   2.072   1.107 -0.5324  0.0801 -0.3234
  899SOL    HW1 3594   2.173   2.073   1.028 -0.5974  1.6353 -0.2874
  899SOL    HW2 3595   2.295   2.138   1.091 -1.5080  1.6545  1.5174
  899SOL     MW 3596   2.229   2.081   1.095  0.0013  0.0003 -0.0018
  900SOL     OW 3597   0.642   1.709   0.560  0.3370  0.3366 -0.8063
  900SOL    HW1 3598   0.726   1.711   0.605  0.1284  3.1103 -0.3385
  900SOL    HW2 3599   0.637   1.794   0.515 -2.5605  0.6940 -0.0478
  900SOL     MW 3600   0.652   1.720   0.560  0.0013  0.0003 -0.0018
  901SOL     OW 3601   2.558   1.202   2.901  0.1204 -0.2251 -0.3217
  901SOL    HW1 3602   2.610   1.282   2.894  1.3230 -0.8569  0.9484
  901SOL    HW2 3603   2.622   1.131   2.899 -0.5727 -0.9922  2.1154
  901SOL     MW 3604   2.573   1.204   2.900  0.0013  0.0003 -0.0018
  902SOL     OW 3605   2.925   1.955   2.529 -0.0474  0.0002 -0.2425
  902SOL    HW1 3606   3.003   2.000   2.562  1.1917  0.7908 -3.7846
  902SOL    HW2 3607   2.852   2.001   2.571  1.2984  1.0338  1.1290
  902SOL     MW 3608   2.926   1.967   2.539  0.0013  0.0003 -0.0018
  903SOL     OW 3609   2.495   0.943   0.158 -0.0436 -0.0374 -0.4489
  903SOL    HW1 3610   2.422   0.961   0.217 -0.0418  0.0491 -0.4719
  903SOL    HW2 3611   2.457   0.945   0.070 -0.1903 -0.9212 -0.4101
  903SOL     MW 3612   2.481   0.946   0.154  0.0013  0.0003 -0.0018
  904SOL     OW 3613  -0.028   3.065   1.435 -0.2504 -0.2341  0.3161
  904SOL    HW1 3614   0.038   3.001   1.459  0.0539  0.5228  1.6164
  904SOL    HW2 3615   0.021   3.134   1.390 -0.2439  0.0224  0.7089
  904SOL     MW 3616  -0.013   3.066   1.432  0.0013  0.0003 -0.0018
  905SOL     OW 3617   1.126   1.609   0.393 -0.3008  0.1115  0.7441
  905SOL    HW1 3618   1.137   1.519   0.423 -0.0776 -0.0138  0.2993
  905SOL    HW2 3619   1.049   1.607   0.335  0.1410  0.0513  0.1448
  905SOL     MW 3620   1.117   1.597   0.389  0.0013  0.0003 -0.0018
  906SOL     OW 3621   0.138   1.379   2.362  0.6058  0.1732  0.0227
  906SOL    HW1 3622   0.214   1.334   2.398  0.9713  1.3182  0.6973
  906SOL    HW2 3623   0.072   1.375   2.432  0.9268  1.3948  0.4160
  906SOL     MW 3624   0.139   1.373   2.375  0.0013  0.0003 -0.0018
  907SOL     OW 3625   1.135   0.175   1.504  0.4102  0.1926  0.1780
  907SOL    HW1 3626   1.053   0.167   1.553 -0.7646  1.0602 -1.5418
  907SOL    HW2 3627   1.196   0.118   1.550 -0.7312  0.6170  2.3709
  907SOL     MW 3628   1.132   0.167   1.516  0.0013  0.0003 -0.0018
  908SOL     OW 3629   1.930   0.225   3.087  0.1397 -0.3076  0.4438
  908SOL    HW1 3630   2.008   0.214   3.034 -0.3030 -1.5407  0.0084
  908SOL    HW2 3631   1.909   0.137   3.118 -0.6698  0.1090  1.1375
  908SOL     MW 3632   1.937   0.212   3.084  0.0013  0.0003 -0.0018
  909SOL     OW 3633   2.139   2.657   2.011 -0.9390 -0.6516 -0.5375
  909SOL    HW1 3634   2.161   2.749   1.994 -2.1603 -0.4769 -1.3219
  909SOL    HW2 3635   2.179   2.610   1.938 -0.1101 -0.7975 -0.0096
  909SOL     MW 3636   2.147   2.663   1.999  0.0013  0.0003 -0.0018
  910SOL     OW 3637   2.637   2.460   1.832 -0.9959 -0.8488  0.0565
  910SOL    HW1 3638   2.629   2.535   1.892 -2.0573 -0.4169 -0.6015
  910SOL    HW2 3639   2.552   2.417   1.836 -0.9143 -1.1048 -0.7655
  910SOL     MW 3640   2.626   2.464   1.840  0.0013  0.0003 -0.0018
  911SOL     OW 3641   1.032   2.405   2.581 -0.0411  0.3053  0.7493
  911SOL    HW1 3642   1.058   2.445   2.664 -1.2419  1.4948  0.5847
  911SOL    HW2 3643   1.103   2.424   2.521 -0.0756  1.2118  0.9859
  911SOL     MW 3644   1.044   2.413   2.584  0.0013  0.0003 -0.0018
  912SOL     OW 3645   2.514   2.058   1.415 -0.3551  0.0548  0.1013
  912SOL    HW1 3646   2.496   1.978   1.465 -0.2842  0.0939  0.1902
  912SOL    HW2 3647   2.609   2.069   1.421 -0.1940 -0.5678 -0.9925
  912SOL     MW 3648   2.524   2.049   1.422  0.0013  0.0003 -0.0018
  913SOL     OW 3649   1.107   2.533   0.788 -0.1408 -0.1038 -0.7887
  913SOL    HW1 3650   1.031   2.499   0.742 -0.1617  0.3758 -1.1143
  913SOL    HW2 3651   1.182   2.510   0.733 -0.0639 -0.4603 -0.5347
  913SOL     MW 3652   1.107   2.526   0.775  0.0013  0.0003 -0.0018
  914SOL     OW 3653   2.805   0.872   2.180 -0.1902  0.1920 -0.2082
  914SOL    HW1 3654   2.818   0.822   2.261  1.4769  0.8963 -0.0017
  914SOL    HW2 3655   2.734   0.827   2.136  0.4860 -1.6977  0.5099
  914SOL     MW 3656   2.798   0.860   2.185  0.0013  0.0003 -0.0018
  915SOL     OW 3657   2.810   0.757   1.593  0.3393  0.1028  0.2351
  915SOL    HW1 3658   2.828   0.775   1.501  0.5372  0.1198  0.2757
  915SOL    HW2 3659   2.884   0.703   1.621 -0.5115 -1.2604 -0.0378
  915SOL     MW 3660   2.822   0.752   1.585  0.0013  0.0003 -0.0018
  916SOL     OW 3661   0.630   0.614   1.724  0.9255 -0.6761 -0.6962
  916SOL    HW1 3662   0.603   0.568   1.803  0.9331  0.2181 -0.1592
  916SOL    HW2 3663   0.725   0.626   1.735  0.8168  0.0665 -0.4968
  916SOL     MW 3664   0.639   0.610   1.736  0.0013  0.0003 -0.0018
  917SOL     OW 3665   1.279   1.441   1.332  0.1527 -0.3852 -0.1607
  917SOL    HW1 3666   1.193   1.483   1.326  0.7677  1.1392  1.1693
  917SOL    HW2 3667   1.316   1.450   1.244 -1.5382 -2.3451 -1.2001
  917SOL     MW 3668   1.272   1.447   1.320  0.0013  0.0003 -0.0018
  918SOL     OW 3669   1.122   1.391   1.661 -0.5528 -0.2284  0.1037
  918SOL    HW1 3670   1.171   1.344   1.729 -2.1577 -1.5120  0.4271
  918SOL    HW2 3671   1.147   1.346   1.579 -0.1228  0.0533  0.0735
  918SOL     MW 3672   1.132   1.379   1.659  0.0013  0.0003 -0.0018
  919SOL     OW 3673   0.044   2.591   1.091 -0.0948 -0.0157  0.5119
  919SOL    HW1 3674   0.103   2.666   1.083  0.6214 -0.6765 -0.9035
  919SOL    HW2 3675   0.072   2.546   1.171  1.4022 -0.3504 -0.1642
  919SOL     MW 3676   0.055   2.594   1.100  0.0013  0.0003 -0.0018
  920SOL     OW 3677   2.096   2.042   3.023 -0.2050 -0.0877 -0.3194
  920SOL    HW1 3678   2.105   1.949   3.042  1.9844  0.0898 -0.2207
  920SOL    HW2 3679   2.160   2.059   2.954 -0.2872  1.3983 -0.0631
  920SOL     MW 3680   2.105   2.033   3.017  0.0013  0.0003 -0.0018
  921SOL     OW 3681   0.175   1.079   2.069 -0.4659  0.4690  0.0147
  921SOL    HW1 3682   0.137   1.003   2.112  1.0031 -1.3429 -1.6805
  921SOL    HW2 3683   0.196   1.049   1.981  0.5991  2.7188 -0.5814
  921SOL     MW 3684   0.173   1.066   2.064  0.0013  0.0003 -0.0018
  922SOL     OW 3685   1.993   1.296   0.715 -0.5398  0.2489  0.3617
  922SOL    HW1 3686   2.023   1.377   0.673  0.6961 -0.9379 -1.1695
  922SOL    HW2 3687   2.014   1.308   0.808 -0.0441  1.5325  0.1071
  922SOL     MW 3688   2.000   1.308   0.722  0.0013  0.0003 -0.0018
  923SOL     OW 3689   1.510   2.890   2.618  1.1300 -0.6492  0.2712
  923SOL    HW1 3690   1.460   2.969   2.640 -0.3169 -1.4874  0.1227
  923SOL    HW2 3691   1.562   2.915   2.542  0.4872  0.0902  0.0602
  923SOL     MW 3692   1.510   2.903   2.611  0.0013  0.0003 -0.0018
  924SOL     OW 3693   0.250   0.207   0.370  0.2240 -0.0275  0.2946
  924SOL    HW1 3694   0.331   0.169   0.338  0.1355  1.4748 -2.0089
  924SOL    HW2 3695   0.260   0.301   0.355 -2.2229  0.1335 -0.8928
  924SOL     MW 3696   0.262   0.214   0.364  0.0013  0.0003 -0.0018
  925SOL     OW 3697   2.990   1.892   0.396 -0.2391  0.1409  0.0147
  925SOL    HW1 3698   3.048   1.962   0.425 -1.9069  1.9597 -0.8513
  925SOL    HW2 3699   3.022   1.870   0.308  0.6145 -0.6094  0.4937
  925SOL     MW 3700   3.002   1.898   0.388  0.0013  0.0003 -0.0018
  926SOL     OW 3701   1.142   0.133   2.454  0.5832 -0.1026  0.1009
  926SOL    HW1 3702   1.056   0.159   2.488  0.3582  0.1546 -0.6424
  926SOL    HW2 3703   1.204   0.161   2.521  0.4645  3.2428 -0.9793
  926SOL     MW 3704   1.139   0.140   2.467  0.0013  0.0003 -0.0018
  927SOL     OW 3705   2.420   2.921   2.539  0.2758 -0.1359  0.7464
  927SOL    HW1 3706   2.351   2.946   2.478  0.8519 -0.8899 -0.2265
  927SOL    HW2 3707   2.373   2.880   2.612 -0.5018  1.6974  1.3537
  927SOL     MW 3708   2.405   2.919   2.541  0.0013  0.0003 -0.0018
  928SOL     OW 3709   1.632   2.256   1.116  0.1697  0.2115  0.3418
  928SOL    HW1 3710   1.575   2.297   1.180  0.2356 -2.2119  2.0830
  928SOL    HW2 3711   1.573   2.228   1.046 -0.0663  1.8163 -0.1417
  928SOL     MW 3712   1.617   2.258   1.115  0.0013  0.0003 -0.0018
  929SOL     OW 3713   1.669   1.557   0.690 -0.2339 -0.0370  0.5206
  929SOL    HW1 3714   1.650   1.647   0.665 -2.1269  0.2605  2.7622
  929SOL    HW2 3715   1.725   1.564   0.767  0.6593 -0.8313 -0.0270
  929SOL     MW 3716   1.674   1.569   0.697  0.0013  0.0003 -0.0018
  930SOL     OW 3717   1.927   0.674   2.167 -0.4882 -0.2560 -0.5081
  930SOL    HW1 3718   2.022   0.674   2.152 -0.2244 -0.7977  0.9573
  930SOL    HW2 3719   1.906   0.766   2.184  0.0998 -0.3365  0.8196
  930SOL     MW 3720   1.936   0.686   2.168  0.0013  0.0003 -0.0018
  931SOL     OW 3721   2.177   0.445   2.515  0.4516  0.2011 -0.3944
  931SOL    HW1 3722   2.227   0.504   2.459  1.7640  1.9630  2.4136
  931SOL    HW2 3723   2.093   0.489   2.527 -0.1358 -0.5696 -1.5596
  931SOL     MW 3724   2.173   0.459   2.510  0.0013  0.0003 -0.0018
  932SOL     OW 3725   0.031   0.854   2.157 -0.3009 -0.0205 -0.1874
  932SOL    HW1 3726  -0.033   0.812   2.214  0.4543 -1.8497 -0.6266
  932SOL    HW2 3727   0.115   0.817   2.182  0.3997  1.1364 -0.7144
  932SOL     MW 3728   0.033   0.844   2.167  0.0013  0.0003 -0.0018
  933SOL     OW 3729   2.123   3.070   2.041  0.3650 -0.0562 -0.2537
  933SOL    HW1 3730   2.158   2.989   2.004 -0.8340 -0.9942  0.6175
  933SOL    HW2 3731   2.041   3.045   2.083  0.6829  1.3336  1.3099
  933SOL     MW 3732   2.117   3.057   2.042  0.0013  0.0003 -0.0018
  934SOL     OW 3733   1.732   0.832   1.904  0.2122 -0.0514  0.2344
  934SOL    HW1 3734   1.776   0.888   1.840 -0.4262  1.2363  0.8853
  934SOL    HW2 3735   1.649   0.875   1.921  0.4258 -0.2768  2.0472
  934SOL     MW 3736   1.727   0.844   1.898  0.0013  0.0003 -0.0018
  935SOL     OW 3737   2.580   1.942   0.882 -0.0501 -0.0580 -0.1075
  935SOL    HW1 3738   2.497   1.926   0.837  1.0560 -3.0597 -1.3580
  935SOL    HW2 3739   2.557   1.944   0.975 -1.5825 -0.3078 -0.4595
  935SOL     MW 3740   2.567   1.940   0.888  0.0013  0.0003 -0.0018
  936SOL     OW 3741   1.746   2.185   0.044 -0.0400 -0.4260  0.3054
  936SOL    HW1 3742   1.672   2.211   0.099 -0.4968 -0.3263 -0.3419
  936SOL    HW2 3743   1.768   2.265  -0.004 -2.4496 -1.4333 -2.8664
  936SOL     MW 3744   1.739   2.198   0.045  0.0013  0.0003 -0.0018
  937SOL     OW 3745   0.920   0.165   2.612  0.2086 -0.4426 -0.1564
  937SOL    HW1 3746   0.861   0.240   2.607 -0.3792 -0.8990 -0.1700
  937SOL    HW2 3747   0.951   0.166   2.702 -1.2676 -1.2645  0.4027
  937SOL     MW 3748   0.916   0.175   2.623  0.0013  0.0003 -0.0018
  938SOL     OW 3749   2.568   2.704   2.885  0.2930 -0.4510  0.4942
  938SOL    HW1 3750   2.636   2.725   2.821  0.0633 -1.1255  0.0167
  938SOL    HW2 3751   2.515   2.784   2.892 -0.6449 -0.8684 -1.3728
  938SOL     MW 3752   2.570   2.717   2.878  0.0013  0.0003 -0.0018
  939SOL     OW 3753   1.374   2.229   2.929  0.7698 -0.2896 -0.2766
  939SOL    HW1 3754   1.393   2.315   2.891  1.7371 -1.0980 -1.6920
  939SOL    HW2 3755   1.398   2.167   2.861 -0.6406 -1.6772  0.4404
  939SOL     MW 3756   1.379   2.232   2.916  0.0013  0.0003 -0.0018
  940SOL     OW 3757   1.371   1.009   1.438 -1.2079  0.5314  0.0162
  940SOL    HW1 3758   1.304   1.077   1.429 -0.6646  1.4289  2.0395
  940SOL    HW2 3759   1.454   1.057   1.433 -0.8020 -0.0780  0.7041
  940SOL     MW 3760   1.373   1.024   1.436  0.0013  0.0003 -0.0018
  941SOL     OW 3761   0.974   2.827   1.911  0.1236  0.1058  0.1886
  941SOL    HW1 3762   1.055   2.778   1.898 -0.2746 -0.5164 -0.0053
  941SOL    HW2 3763   0.995   2.891   1.979  0.9962  0.4853 -0.4138
  941SOL     MW 3764   0.987   2.829   1.918  0.0013  0.0003 -0.0018
  942SOL     OW 3765   2.649   0.724   0.568  0.2520  0.3176  0.2374
  942SOL    HW1 3766   2.717   0.779   0.530  0.2995 -1.3357 -2.3697
  942SOL    HW2 3767   2.688   0.636   0.570 -0.7632 -0.1372  1.6468
  942SOL     MW 3768   2.663   0.720   0.563  0.0013  0.0003 -0.0018
  943SOL     OW 3769   0.515   2.601   2.345  0.0957 -0.1352  0.9208
  943SOL    HW1 3770   0.547   2.572   2.260 -0.8038  0.3410  0.3941
  943SOL    HW2 3771   0.536   2.530   2.405  0.6693 -0.5145  0.2848
  943SOL     MW 3772   0.522   2.589   2.342  0.0013  0.0003 -0.0018
  944SOL     OW 3773   0.237   2.960   0.120 -0.3461  0.2498  0.5569
  944SOL    HW1 3774   0.213   2.920   0.204 -3.2572 -0.0499 -0.3018
  944SOL    HW2 3775   0.195   3.045   0.121 -0.5288  0.1879 -0.6388
  944SOL     MW 3776   0.229   2.966   0.131  0.0013  0.0003 -0.0018
  945SOL     OW 3777   1.746   2.023   0.811 -0.5942  0.0183  0.4233
  945SOL    HW1 3778   1.802   2.074   0.753 -0.7254 -1.4995 -1.1265
  945SOL    HW2 3779   1.807   1.969   0.861 -0.5784 -1.2491 -0.8880
  945SOL     MW 3780   1.761   2.023   0.810  0.0013  0.0003 -0.0018
  946SOL     OW 3781   1.321   1.054   2.303 -0.7716  0.1117  0.0460
  946SOL    HW1 3782   1.250   1.096   2.254 -0.6418 -0.8407 -0.9904
  946SOL    HW2 3783   1.310   1.086   2.392 -1.1989  1.6528 -0.5296
  946SOL     MW 3784   1.310   1.063   2.308  0.0013  0.0003 -0.0018
  947SOL     OW 3785   0.368   2.786   2.778  0.1396 -0.6864  0.0571
  947SOL    HW1 3786   0.310   2.780   2.702  0.8673  4.3577 -1.2249
  947SOL    HW2 3787   0.443   2.730   2.756 -0.8036 -1.3168 -1.7228
  947SOL     MW 3788   0.370   2.778   2.765  0.0013  0.0003 -0.0018
  948SOL     OW 3789   0.188   0.718   1.489 -0.0416  0.1210  0.0466
  948SOL    HW1 3790   0.142   0.802   1.482 -0.7040 -0.3033 -0.8974
  948SOL    HW2 3791   0.281   0.742   1.483 -0.2697  0.6613 -2.0208
  948SOL     MW 3792   0.194   0.732   1.487  0.0013  0.0003 -0.0018
  949SOL     OW 3793   2.621   0.951   1.686 -0.1549  0.1080 -0.3777
  949SOL    HW1 3794   2.568   0.901   1.748 -0.3049  1.9227  1.0251
  949SOL    HW2 3795   2.667   0.884   1.634 -3.1337 -1.5344 -1.1236
  949SOL     MW 3796   2.620   0.936   1.687  0.0013  0.0003 -0.0018
  950SOL     OW 3797   1.780   0.105   1.208  0.5527 -0.2515 -0.4181
  950SOL    HW1 3798   1.850   0.115   1.143  0.6049  1.1057 -0.1717
  950SOL    HW2 3799   1.825   0.077   1.287  0.5585 -1.3163 -0.7713
  950SOL     MW 3800   1.795   0.103   1.209  0.0013  0.0003 -0.0018
  951SOL     OW 3801   0.315   2.937   2.315  0.0923  0.0889 -0.0112
  951SOL    HW1 3802   0.344   2.914   2.226  1.1136  1.5052 -0.0913
  951SOL    HW2 3803   0.299   3.031   2.310  0.6475  0.2758  1.4389
  951SOL     MW 3804   0.317   2.946   2.303  0.0013  0.0003 -0.0018
  952SOL     OW 3805   0.080   1.591   0.510  0.5254 -0.0865  0.0880
  952SOL    HW1 3806   0.039   1.632   0.586  0.5819 -1.0876  0.6768
  952SOL    HW2 3807   0.007   1.563   0.455  0.4598 -0.2737  0.2701
  952SOL     MW 3808   0.065   1.593   0.513  0.0013  0.0003 -0.0018
  953SOL     OW 3809   1.625   2.033   2.511 -0.1586  0.3826  0.4871
  953SOL    HW1 3810   1.596   2.048   2.601 -0.4902  1.2866  0.2443
  953SOL    HW2 3811   1.690   2.102   2.495  0.6884 -0.4145  0.3721
  953SOL     MW 3812   1.630   2.044   2.520  0.0013  0.0003 -0.0018
  954SOL     OW 3813   0.647   1.011   0.815 -0.5865  0.3276 -0.4872
  954SOL    HW1 3814   0.704   1.087   0.825 -0.9175  0.5153  0.0453
  954SOL    HW2 3815   0.629   0.983   0.905 -0.6049 -0.2729 -0.6797
  954SOL     MW 3816   0.652   1.017   0.828  0.0013  0.0003 -0.0018
  955SOL     OW 3817   1.897   2.349   1.032  0.2570  0.4628 -0.1902
  955SOL    HW1 3818   1.911   2.426   0.976 -0.0638  0.0377 -0.8712
  955SOL    HW2 3819   1.804   2.352   1.053  0.3816  0.6317  0.3433
  955SOL     MW 3820   1.887   2.360   1.028  0.0013  0.0003 -0.0018
  956SOL     OW 3821   1.882   0.395   2.668 -0.1357 -0.0343 -0.3150
  956SOL    HW1 3822   1.839   0.342   2.735  1.6642  0.3313  1.2350
  956SOL    HW2 3823   1.845   0.483   2.679 -1.3106 -0.3989 -1.2049
  956SOL     MW 3824   1.872   0.400   2.678  0.0013  0.0003 -0.0018
  957SOL     OW 3825   2.344   2.033   2.308  0.0578  0.0865  0.0905
  957SOL    HW1 3826   2.336   2.114   2.358 -0.7153  0.4416 -0.5817
  957SOL    HW2 3827   2.414   1.984   2.352 -2.1093 -0.6804  2.9783
  957SOL     MW 3828   2.352   2.037   2.320  0.0013  0.0003 -0.0018
  958SOL     OW 3829   2.516   1.701   0.176  0.5873 -0.7717 -0.2223
  958SOL    HW1 3830   2.596   1.738   0.214  0.5055  1.1428 -1.7543
  958SOL    HW2 3831   2.456   1.695   0.250  2.1276 -2.3795  1.0002
  958SOL     MW 3832   2.519   1.705   0.190  0.0013  0.0003 -0.0018
  959SOL     OW 3833   1.700   2.915   1.967 -0.5285  0.1084  0.0228
  959SOL    HW1 3834   1.708   2.820   1.961  2.0815  0.2229  0.4028
  959SOL    HW2 3835   1.690   2.945   1.877  1.6012 -0.3940 -0.4290
  959SOL     MW 3836   1.700   2.907   1.955  0.0013  0.0003 -0.0018
  960SOL     OW 3837   1.568   2.236   0.260  0.2709  0.0090  0.1964
  960SOL    HW1 3838   1.605   2.275   0.339 -0.2781 -0.6189  0.7729
  960SOL    HW2 3839   1.475   2.225   0.279 -0.2844  1.6824 -1.2778
  960SOL     MW 3840   1.561   2.239   0.273  0.0013  0.0003 -0.0018
  961SOL     OW 3841   2.723   2.799   2.683 -0.2073  0.1325  0.8970
  961SOL    HW1 3842   2.781   2.732   2.647 -1.4835 -0.5842  0.1073
  961SOL    HW2 3843   2.753   2.881   2.643 -0.2364 -0.3442 -0.1350
  961SOL     MW 3844   2.734   2.801   2.673  0.0013  0.0003 -0.0018
  962SOL     OW 3845   2.699   2.172   2.005 -0.2846  0.4845 -0.1411
  962SOL    HW1 3846   2.758   2.171   1.930 -0.1124 -0.1825 -0.0028
  962SOL    HW2 3847   2.619   2.129   1.973  0.5273 -1.7758  0.6168
  962SOL     MW 3848   2.696   2.166   1.992  0.0013  0.0003 -0.0018
  963SOL     OW 3849   0.334   2.208   2.912 -0.3333 -0.5526 -0.4653
  963SOL    HW1 3850   0.246   2.229   2.882 -1.1515 -0.7369  1.6443
  963SOL    HW2 3851   0.366   2.289   2.953 -0.4251 -1.1033  0.7453
  963SOL     MW 3852   0.327   2.221   2.913  0.0013  0.0003 -0.0018
  964SOL     OW 3853   0.593   2.689   2.646 -0.2463 -0.4196 -1.0870
  964SOL    HW1 3854   0.680   2.702   2.607  0.3333 -0.1536  0.2255
  964SOL    HW2 3855   0.596   2.599   2.680 -0.8138 -0.7180 -1.8057
  964SOL     MW 3856   0.605   2.679   2.645  0.0013  0.0003 -0.0018
  965SOL     OW 3857   1.726   2.746   2.321 -0.1885 -0.0717 -0.4054
  965SOL    HW1 3858   1.809   2.738   2.276 -0.1853 -0.1385 -0.3867
  965SOL    HW2 3859   1.727   2.677   2.387 -0.5960 -0.5912 -0.9280
  965SOL     MW 3860   1.737   2.736   2.324  0.0013  0.0003 -0.0018
  966SOL     OW 3861   1.051   2.729   0.168 -0.4466 -0.1669  0.7226
  966SOL    HW1 3862   1.116   2.660   0.183  0.0659 -0.0060 -0.5757
  966SOL    HW2 3863   1.104   2.807   0.150 -0.9216 -0.4069 -2.0567
  966SOL     MW 3864   1.066   2.731   0.168  0.0013  0.0003 -0.0018
  967SOL     OW 3865   2.430   1.624   2.901  0.7222 -0.2401  0.1088
  967SOL    HW1 3866   2.377   1.550   2.931  1.2053 -1.1377 -1.1719
  967SOL    HW2 3867   2.510   1.619   2.953 -0.6973  1.6634  2.7192
  967SOL     MW 3868   2.434   1.614   2.912  0.0013  0.0003 -0.0018
  968SOL     OW 3869   0.104   0.508   0.273  0.1002 -0.0313  0.7011
  968SOL    HW1 3870   0.128   0.600   0.284  0.4118 -0.2723  2.1886
  968SOL    HW2 3871   0.181   0.467   0.234 -0.9789  0.8092 -2.6941
  968SOL     MW 3872   0.117   0.515   0.269  0.0013  0.0003 -0.0018
  969SOL     OW 3873   1.849   1.484   0.192 -0.1371 -0.0212 -0.3944
  969SOL    HW1 3874   1.880   1.403   0.233  0.3370  0.0479 -0.6134
  969SOL    HW2 3875   1.768   1.505   0.239 -1.6007 -1.9173 -1.8487
  969SOL     MW 3876   1.842   1.476   0.203  0.0013  0.0003 -0.0018
  970SOL     OW 3877   2.735   2.091   0.444 -0.9193  1.0398 -0.1414
  970SOL    HW1 3878   2.719   2.156   0.511  0.5196  0.1509  1.1340
  970SOL    HW2 3879   2.784   2.137   0.376  2.7136  0.7933  2.0525
  970SOL     MW 3880   2.739   2.105   0.444  0.0013  0.0003 -0.0018
  971SOL     OW 3881   1.595   0.354   1.819  0.6314  0.4429 -0.4099
  971SOL    HW1 3882   1.584   0.288   1.750  0.8231 -0.9282  0.7980
  971SOL    HW2 3883   1.615   0.302   1.897  0.9000  1.9720  0.5720
  971SOL     MW 3884   1.596   0.339   1.820  0.0013  0.0003 -0.0018
  972SOL     OW 3885   1.574   1.134   2.395  0.0759  0.9096  0.0264
  972SOL    HW1 3886   1.542   1.054   2.352  1.0597  0.3347  0.3297
  972SOL    HW2 3887   1.503   1.159   2.455 -0.2919  0.3264 -0.1562
  972SOL     MW 3888   1.561   1.127   2.397  0.0013  0.0003 -0.0018
  973SOL     OW 3889   1.778   1.991   1.544  0.0866 -0.2653 -0.1943
  973SOL    HW1 3890   1.761   2.077   1.505  0.2170 -0.7925 -1.4530
  973SOL    HW2 3891   1.874   1.984   1.544  0.0668 -0.5675 -0.4667
  973SOL     MW 3892   1.788   2.001   1.539  0.0013  0.0003 -0.0018
  974SOL     OW 3893   0.873   0.343   0.787 -0.2347  0.2876 -0.1109
  974SOL    HW1 3894   0.853   0.366   0.877 -0.5470  2.0584 -0.6019
  974SOL    HW2 3895   0.787   0.323   0.748 -0.4015  1.8112 -0.5929
  974SOL     MW 3896   0.859   0.343   0.793  0.0013  0.0003 -0.0018
  975SOL     OW 3897   0.678   0.160   1.456  0.7096 -0.1129  0.1977
  975SOL    HW1 3898   0.738   0.175   1.383 -0.3425 -0.2782 -0.7275
  975SOL    HW2 3899   0.719   0.205   1.530  1.8036  0.0538 -0.4850
  975SOL     MW 3900   0.691   0.168   1.456  0.0013  0.0003 -0.0018
  976SOL     OW 3901   0.093   0.118   2.448  0.0236  0.0746  0.6309
  976SOL    HW1 3902   0.067   0.078   2.531 -0.7266  0.7000  0.6975
  976SOL    HW2 3903   0.041   0.197   2.441 -0.4388 -0.3225 -0.7702
  976SOL     MW 3904   0.083   0.123   2.458  0.0013  0.0003 -0.0018
  977SOL     OW 3905   0.138   1.101   2.753 -0.1201  0.4836 -0.3324
  977SOL    HW1 3906   0.194   1.153   2.810 -0.5629 -0.9575  1.5143
  977SOL    HW2 3907   0.191   1.025   2.730 -0.8831 -0.3174  0.4859
  977SOL     MW 3908   0.152   1.098   2.757  0.0013  0.0003 -0.0018
  978SOL     OW 3909   1.045   0.000   1.242 -0.1721  0.4472  0.1730
  978SOL    HW1 3910   1.084  -0.044   1.317  2.4539  0.7561 -0.8982
  978SOL    HW2 3911   0.996   0.073   1.279  1.5516  0.9474  1.5810
  978SOL     MW 3912   1.044   0.004   1.256  0.0013  0.0003 -0.0018
  979SOL     OW 3913   0.979   2.799   0.475 -0.4148  0.3948 -0.6066
  979SOL    HW1 3914   0.962   2.886   0.439 -0.8436  0.8662  0.6838
  979SOL    HW2 3915   0.925   2.794   0.554  0.9027 -0.3810  0.2835
  979SOL     MW 3916   0.970   2.809   0.480  0.0013  0.0003 -0.0018
  980SOL     OW 3917   2.562   0.827   0.858  0.2829  0.2170  0.2854
  980SOL    HW1 3918   2.598   0.769   0.926 -0.3877 -1.1214 -0.4656
  980SOL    HW2 3919   2.571   0.777   0.777  0.2486  1.4336 -0.4835
  980SOL     MW 3920   2.568   0.813   0.856  0.0013  0.0003 -0.0018
  981SOL     OW 3921   1.346   3.077   2.716 -0.1498 -0.4057 -0.3106
  981SOL    HW1 3922   1.253   3.054   2.721 -0.1788 -0.0504  1.0696
  981SOL    HW2 3923   1.350   3.148   2.652 -0.5650 -1.5774 -1.7222
  981SOL     MW 3924   1.334   3.083   2.708  0.0013  0.0003 -0.0018
  982SOL     OW 3925   2.084   1.407   2.803 -0.0558  0.2389 -0.4373
  982SOL    HW1 3926   2.023   1.350   2.850  0.9223 -0.8908 -0.4934
  982SOL    HW2 3927   2.066   1.391   2.711  1.3445 -1.3150 -0.4914
  982SOL     MW 3928   2.074   1.397   2.797  0.0013  0.0003 -0.0018
  983SOL     OW 3929   0.965   1.259   0.618  0.5245 -0.0183  0.3056
  983SOL    HW1 3930   1.007   1.173   0.624  0.3928 -0.0196  1.5662
  983SOL    HW2 3931   0.983   1.289   0.529 -0.4075 -1.8362 -0.5427
  983SOL     MW 3932   0.973   1.252   0.608  0.0013  0.0003 -0.0018
  984SOL     OW 3933   2.551   2.214   1.635  0.0445 -0.2578  0.0130
  984SOL    HW1 3934   2.552   2.135   1.581 -0.1941 -1.6341  1.9064
  984SOL    HW2 3935   2.643   2.231   1.655  0.2288  0.9248 -1.6844
  984SOL     MW 3936   2.563   2.206   1.631  0.0013  0.0003 -0.0018
  985SOL     OW 3937   1.983   2.653   2.222 -0.0357 -0.0086 -0.2853
  985SOL    HW1 3938   2.046   2.666   2.151 -1.0039  0.2644 -1.1123
  985SOL    HW2 3939   1.938   2.571   2.200 -0.8640  0.4666 -0.3926
  985SOL     MW 3940   1.985   2.644   2.210  0.0013  0.0003 -0.0018
  986SOL     OW 3941   2.173  -0.002   2.796 -0.3000 -0.1192  0.5344
  986SOL    HW1 3942   2.149   0.077   2.845 -0.9103 -0.4655  0.8040
  986SOL    HW2 3943   2.100  -0.015   2.736 -0.3286 -0.6224  0.6745
  986SOL     MW 3944   2.160   0.006   2.795  0.0013  0.0003 -0.0018
  987SOL     OW 3945   2.943   1.037   1.961  0.5078  0.4226  0.0247
  987SOL    HW1 3946   2.905   0.982   2.030 -1.8584 -3.4340 -3.8345
  987SOL    HW2 3947   3.035   1.008   1.956  0.1340 -0.8829  0.1941
  987SOL     MW 3948   2.950   1.026   1.969  0.0013  0.0003 -0.0018
  988SOL     OW 3949   2.087   2.288   2.815  0.3381 -0.0648 -0.0804
  988SOL    HW1 3950   1.993   2.304   2.808  0.7273  1.8801 -1.7752
  988SOL    HW2 3951   2.116   2.348   2.883  0.2555 -1.3123  1.0882
  988SOL     MW 3952   2.078   2.298   2.823  0.0013  0.0003 -0.0018
  989SOL     OW 3953   2.497   1.989   1.904 -0.8621  0.8254 -0.0838
  989SOL    HW1 3954   2.497   1.976   1.810 -1.5863 -4.3744  0.3468
  989SOL    HW2 3955   2.408   1.966   1.931 -0.6052  1.9704  1.9713
  989SOL     MW 3956   2.485   1.985   1.896  0.0013  0.0003 -0.0018
  990SOL     OW 3957   3.019   2.736   1.816  0.0794  0.3862  0.3971
  990SOL    HW1 3958   3.071   2.815   1.800 -0.0715  0.5099  0.5094
  990SOL    HW2 3959   3.063   2.692   1.888  1.7603 -1.0596 -1.4079
  990SOL     MW 3960   3.031   2.741   1.823  0.0013  0.0003 -0.0018
  991SOL     OW 3961   1.173   2.626   1.913  0.0155 -0.1098  0.3894
  991SOL    HW1 3962   1.248   2.672   1.949 -0.1366 -0.0418  0.6186
  991SOL    HW2 3963   1.174   2.541   1.957  0.7896 -0.6603 -0.6421
  991SOL     MW 3964   1.183   2.621   1.923  0.0013  0.0003 -0.0018
  992SOL     OW 3965   0.099   0.553   2.551 -0.4350 -0.0759 -0.2674
  992SOL    HW1 3966   0.047   0.593   2.621 -1.7335 -1.6935 -0.2352
  992SOL    HW2 3967   0.045   0.480   2.520  1.7261 -1.7125 -0.4015
  992SOL     MW 3968   0.086   0.549   2.556  0.0013  0.0003 -0.0018
  993SOL     OW 3969   0.890   0.644   1.788 -0.1349  0.7627 -0.4917
  993SOL    HW1 3970   0.894   0.729   1.832  0.5906  0.2950  0.3747
  993SOL    HW2 3971   0.969   0.641   1.735  1.8033 -0.7784  2.2132
  993SOL     MW 3972   0.901   0.655   1.787  0.0013  0.0003 -0.0018
  994SOL     OW 3973   0.728   2.074   2.421 -0.0300  0.1496  0.6109
  994SOL    HW1 3974   0.683   1.992   2.442  0.6659 -0.4339 -0.0975
  994SOL    HW2 3975   0.819   2.059   2.448  0.3049  0.3306 -0.3665
  994SOL     MW 3976   0.734   2.062   2.427  0.0013  0.0003 -0.0018
  995SOL     OW 3977   0.516   2.923   0.056  0.1923 -0.4242 -0.1087
  995SOL    HW1 3978   0.479   2.953  -0.027  0.7602 -1.4863 -0.7672
  995SOL    HW2 3979   0.441   2.913   0.114 -0.0782  1.6710 -0.0323
  995SOL     MW 3980   0.502   2.925   0.052  0.0013  0.0003 -0.0018
  996SOL     OW 3981   0.338   0.584   1.201  0.2595  0.2211 -0.1021
  996SOL    HW1 3982   0.331   0.489   1.203  1.3299  0.1329  0.1167
  996SOL    HW2 3983   0.331   0.611   1.293 -0.6542  0.4161 -0.2185
  996SOL     MW 3984   0.337   0.576   1.213  0.0013  0.0003 -0.0018
  997SOL     OW 3985   1.804   0.648   3.108 -0.3149 -0.1335  0.4050
  997SOL    HW1 3986   1.876   0.687   3.058 -1.3167 -0.6743 -1.5425
  997SOL    HW2 3987   1.835   0.560   3.129  0.3110  0.2652  1.2275
  997SOL     MW 3988   1.817   0.642   3.104  0.0013  0.0003 -0.0018
  998SOL     OW 3989   0.081   2.317   2.826 -0.4540 -0.2848  0.0034
  998SOL    HW1 3990  -0.015   2.316   2.827 -0.4643 -0.1079 -0.5293
  998SOL    HW2 3991   0.105   2.372   2.901 -0.8031  0.6700 -0.5619
  998SOL     MW 3992   0.072   2.324   2.836  0.0013  0.0003 -0.0018
  999SOL     OW 3993   1.307   2.430   0.626  0.3103  0.5272 -0.3977
  999SOL    HW1 3994   1.271   2.353   0.670 -0.0882  0.6379 -0.5266
  999SOL    HW2 3995   1.400   2.428   0.648  0.3632 -0.1499 -0.6339
  999SOL     MW 3996   1.314   2.420   0.635  0.0013  0.0003 -0.0018
 1000SOL     OW 3997   1.724   0.589   0.546 -0.2601  0.4375  0.4848
 1000SOL    HW1 3998   1.777   0.577   0.467  0.3609  1.3148  0.7643
 1000SOL    HW2 3999   1.721   0.683   0.560 -1.0580  0.3429  1.0548
 1000SOL     MW 4000   1.730   0.599   0.538  0.0013  0.0003 -0.0018
   3.10704   3.10704   3.10704
