Generic title
 4000
    1SOL     OW    1   0.255   1.761   2.146 -0.1336 -0.0602 -0.1749
    1SOL    HW1    2   0.316   1.833   2.165 -0.5116  0.2149  0.0080
    1SOL    HW2    3   0.172   1.789   2.185 -1.1404  0.8128 -2.7631
    1SOL     MW    4   0.253   1.774   2.154  0.0005 -0.0006 -0.0016
    2SOL     OW    5   0.733   2.052   1.153 -0.4025  0.4883  0.2998
    2SOL    HW1    6   0.735   1.986   1.222  0.7665 -0.1323 -0.3088
    2SOL    HW2    7   0.693   2.129   1.195  0.9291  0.3635  1.8956
    2SOL     MW    8   0.728   2.054   1.167  0.0005 -0.0006 -0.0016
    3SOL     OW    9   1.589   1.391   1.628 -0.8215 -0.0064 -1.0030
    3SOL    HW1   10   1.620   1.347   1.549 -1.8976  1.1471 -2.0965
    3SOL    HW2   11   1.537   1.325   1.673  2.2444 -1.7063  0.4218
    3SOL     MW   12   1.587   1.377   1.624  0.0005 -0.0006 -0.0016
    4SOL     OW   13   0.806   1.047   0.909  0.4515  0.4407 -0.1633
    4SOL    HW1   14   0.873   1.024   0.973  0.5196  0.6900 -0.1423
    4SOL    HW2   15   0.802   0.972   0.850  0.6003  0.3362 -0.0431
    4SOL     MW   16   0.814   1.035   0.910  0.0005 -0.0006 -0.0016
    5SOL     OW   17   0.575   0.734   2.247  0.2243 -0.4388  0.1929
    5SOL    HW1   18   0.656   0.785   2.254  0.8062 -1.3507  0.3168
    5SOL    HW2   19   0.506   0.799   2.233  0.9555  0.3650  0.2698
    5SOL     MW   20   0.576   0.748   2.246  0.0005 -0.0006 -0.0016
    6SOL     OW   21  -0.002   0.781   1.898 -0.4611 -0.3404  0.2022
    6SOL    HW1   22   0.079   0.831   1.903  0.8741 -2.3436 -0.2642
    6SOL    HW2   23  -0.057   0.830   1.837  1.7912 -0.7431 -2.3143
    6SOL     MW   24   0.001   0.794   1.891  0.0005 -0.0006 -0.0016
    7SOL     OW   25   1.251   0.058   0.361  0.4707  0.2499 -0.3008
    7SOL    HW1   26   1.258   0.018   0.275  2.3302 -0.5034  0.1577
    7SOL    HW2   27   1.339   0.088   0.382  0.2245 -0.2191  1.6335
    7SOL     MW   28   1.263   0.057   0.353  0.0005 -0.0006 -0.0016
    8SOL     OW   29   1.934   1.233   0.920 -0.0388 -0.4591  0.0243
    8SOL    HW1   30   2.010   1.265   0.870  0.6664 -3.3080 -0.9276
    8SOL    HW2   31   1.861   1.287   0.889  1.1610  0.7359 -0.8636
    8SOL     MW   32   1.935   1.244   0.910  0.0005 -0.0006 -0.0016
    9SOL     OW   33   2.100   0.858   0.199  0.4924  0.1744 -0.4477
    9SOL    HW1   34   2.141   0.916   0.135  3.2376 -0.7870  0.3053
    9SOL    HW2   35   2.098   0.772   0.157 -0.0919  0.0534 -0.1869
    9SOL     MW   36   2.105   0.855   0.185  0.0005 -0.0006 -0.0016
   10SOL     OW   37   2.912   2.938   0.055  0.1719  0.1378 -0.3274
   10SOL    HW1   38   2.880   2.857   0.094 -1.2350  0.4225 -0.8458
   10SOL    HW2   39   2.920   2.919  -0.038 -0.0509  0.5592 -0.4368
   10SOL     MW   40   2.909   2.925   0.048  0.0005 -0.0006 -0.0016
   11SOL     OW   41   3.092   0.010   2.943  0.0949  1.2379 -0.3494
   11SOL    HW1   42   3.157   0.000   3.012 -0.7610 -0.5234  0.2536
   11SOL    HW2   43   3.127   0.080   2.887  1.5658  1.6142  0.9778
   11SOL     MW   44   3.105   0.018   2.945  0.0005 -0.0006 -0.0016
   12SOL     OW   45   0.816   2.327   1.913  0.0048  0.1681  0.3063
   12SOL    HW1   46   0.844   2.366   1.831  0.7311 -0.6288  0.1521
   12SOL    HW2   47   0.898   2.307   1.959 -0.3916  1.1929  1.5125
   12SOL     MW   48   0.830   2.329   1.909  0.0005 -0.0006 -0.0016
   13SOL     OW   49   0.436   2.047   0.291 -0.2933  0.1744 -0.3182
   13SOL    HW1   50   0.413   1.954   0.292 -0.8825  0.3095 -0.6452
   13SOL    HW2   51   0.356   2.091   0.262 -0.0477  0.7925 -0.0753
   13SOL     MW   52   0.423   2.041   0.287  0.0005 -0.0006 -0.0016
   14SOL     OW   53   1.765   0.900   2.135  0.2473  0.4711  0.8620
   14SOL    HW1   54   1.688   0.921   2.082  0.1097 -1.2082  0.3456
   14SOL    HW2   55   1.811   0.832   2.085  2.0950  1.4412  1.1516
   14SOL     MW   56   1.761   0.894   2.121  0.0005 -0.0006 -0.0016
   15SOL     OW   57   3.124   0.326   1.996 -0.0389  0.1733  0.1823
   15SOL    HW1   58   3.065   0.378   1.940  0.9705  0.0948 -0.9960
   15SOL    HW2   59   3.082   0.327   2.082 -1.5406  0.4695 -0.5209
   15SOL     MW   60   3.111   0.333   2.000  0.0005 -0.0006 -0.0016
   16SOL     OW   61   0.173   2.695   1.100 -0.0416 -0.1015 -0.8195
   16SOL    HW1   62   0.123   2.753   1.042 -3.2763  0.4597  2.1935
   16SOL    HW2   63   0.114   2.621   1.114  2.9190 -3.0104 -2.4382
   16SOL     MW   64   0.159   2.693   1.094  0.0005 -0.0006 -0.0016
   17SOL     OW   65   0.849   2.829   2.934  0.6878  0.1904 -0.2869
   17SOL    HW1   66   0.795   2.857   3.007  1.0454 -0.6515  0.3135
   17SOL    HW2   67   0.791   2.834   2.858 -0.3823 -1.0962  0.4107
   17SOL     MW   68   0.835   2.833   2.933  0.0005 -0.0006 -0.0016
   18SOL     OW   69   2.919   1.175   1.564 -0.2970 -0.1107  0.0193
   18SOL    HW1   70   2.850   1.151   1.502 -0.3380  0.0543  0.0009
   18SOL    HW2   71   2.930   1.097   1.619 -1.1704  0.2034  0.6479
   18SOL     MW   72   2.912   1.162   1.563  0.0005 -0.0006 -0.0016
   19SOL     OW   73   2.185   2.590   2.801 -0.4582 -0.2765 -0.0763
   19SOL    HW1   74   2.246   2.583   2.728 -1.2091 -0.6050 -0.6933
   19SOL    HW2   75   2.239   2.616   2.875  0.1550  1.2695 -1.0106
   19SOL     MW   76   2.199   2.592   2.801  0.0005 -0.0006 -0.0016
   20SOL     OW   77   2.035   0.142   0.856  0.8858 -0.3432  0.3896
   20SOL    HW1   78   1.942   0.164   0.848  1.1251  0.3480 -0.6137
   20SOL    HW2   79   2.046   0.066   0.800  0.5019 -1.8445  2.2204
   20SOL     MW   80   2.025   0.135   0.848  0.0005 -0.0006 -0.0016
   21SOL     OW   81   1.212   2.798   2.217 -0.1459  0.0466  0.7751
   21SOL    HW1   82   1.234   2.853   2.292  2.8396  1.3157 -0.8562
   21SOL    HW2   83   1.293   2.791   2.167 -2.2131  0.4142 -3.0789
   21SOL     MW   84   1.225   2.804   2.220  0.0005 -0.0006 -0.0016
   22SOL     OW   85   2.917   0.371   1.326 -0.1891 -0.1078 -0.3210
   22SOL    HW1   86   2.959   0.329   1.251 -0.1532  1.1629 -1.0369
   22SOL    HW2   87   2.832   0.327   1.334 -0.1219 -0.3648 -0.9996
   22SOL     MW   88   2.911   0.360   1.318  0.0005 -0.0006 -0.0016
   23SOL     OW   89   1.135   1.041   0.054 -0.4429 -0.3113  0.3499
   23SOL    HW1   90   1.167   1.016   0.141 -1.2444 -0.6004  0.5752
   23SOL    HW2   91   1.169   0.974  -0.005  1.2538  0.6371  0.1982
   23SOL     MW   92   1.143   1.029   0.058  0.0005 -0.0006 -0.0016
   24SOL     OW   93   2.934   2.690   1.799 -0.0456  0.0587  0.1773
   24SOL    HW1   94   3.011   2.708   1.852 -0.1144 -0.8747  0.6099
   24SOL    HW2   95   2.967   2.646   1.720  0.0877  1.6953 -0.7275
   24SOL     MW   96   2.948   2.687   1.795  0.0005 -0.0006 -0.0016
   25SOL     OW   97   1.119   2.768   1.581 -0.0901 -0.5387  0.1930
   25SOL    HW1   98   1.126   2.720   1.499  1.7030  2.0534 -1.3327
   25SOL    HW2   99   1.201   2.751   1.626 -0.0943 -0.1580  0.3523
   25SOL     MW  100   1.130   2.760   1.576  0.0005 -0.0006 -0.0016
   26SOL     OW  101   1.539   1.623   1.872 -0.1072 -0.4004 -0.0528
   26SOL    HW1  102   1.453   1.631   1.913  0.6422  1.0637  1.3588
   26SOL    HW2  103   1.577   1.545   1.912 -0.1296 -0.0721  0.6298
   26SOL     MW  104   1.533   1.614   1.882  0.0005 -0.0006 -0.0016
   27SOL     OW  105   1.851   0.683   2.021  0.1214  0.8745 -0.0200
   27SOL    HW1  106   1.938   0.686   1.982 -0.1848  1.8195 -0.6694
   27SOL    HW2  107   1.838   0.591   2.044 -1.0650 -0.6396 -5.4000
   27SOL     MW  108   1.861   0.671   2.019  0.0005 -0.0006 -0.0016
   28SOL     OW  109   1.147   2.335   1.576  0.1938 -0.2295  0.7487
   28SOL    HW1  110   1.198   2.346   1.657 -0.7865  1.8751  1.1547
   28SOL    HW2  111   1.060   2.368   1.598 -0.0567  0.5239 -1.1994
   28SOL     MW  112   1.143   2.341   1.589  0.0005 -0.0006 -0.0016
   29SOL     OW  113   2.082   3.066   0.687  0.5866  0.2625  0.1360
   29SOL    HW1  114   2.114   3.088   0.599 -0.1847  0.7702 -0.0229
   29SOL    HW2  115   2.004   3.014   0.671  0.0493  0.9438  0.5195
   29SOL     MW  116   2.076   3.062   0.673  0.0005 -0.0006 -0.0016
   30SOL     OW  117   1.357   1.530   1.055  0.2332 -0.0426 -0.2269
   30SOL    HW1  118   1.365   1.564   0.966  1.6788  0.2491 -0.0011
   30SOL    HW2  119   1.327   1.439   1.043 -3.8313  1.1439 -0.8363
   30SOL     MW  120   1.354   1.522   1.042  0.0005 -0.0006 -0.0016
   31SOL     OW  121   0.318   0.263   0.600 -0.3220  0.0026  0.2322
   31SOL    HW1  122   0.320   0.168   0.589 -1.0121  0.0663 -0.4985
   31SOL    HW2  123   0.226   0.284   0.613 -0.1329  0.5394  0.7722
   31SOL     MW  124   0.307   0.254   0.600  0.0005 -0.0006 -0.0016
   32SOL     OW  125   1.758   3.083   2.392  0.2624 -0.0973 -0.4533
   32SOL    HW1  126   1.706   3.002   2.387  1.0486 -0.6295 -0.1747
   32SOL    HW2  127   1.829   3.062   2.453  1.3476  0.2949 -1.5421
   32SOL     MW  128   1.760   3.070   2.399  0.0005 -0.0006 -0.0016
   33SOL     OW  129   0.934   2.548   1.394  0.0830 -0.0212 -0.3639
   33SOL    HW1  130   1.020   2.514   1.369 -0.7227 -1.2637 -1.5785
   33SOL    HW2  131   0.918   2.621   1.335 -0.5446 -1.0945 -1.5800
   33SOL     MW  132   0.943   2.553   1.383  0.0005 -0.0006 -0.0016
   34SOL     OW  133   2.788   1.719   2.968  0.3991 -0.5377  0.0118
   34SOL    HW1  134   2.775   1.636   2.923  0.9680 -0.5338 -0.1550
   34SOL    HW2  135   2.699   1.746   2.994  0.2197 -1.2091  0.0965
   34SOL     MW  136   2.775   1.712   2.966  0.0005 -0.0006 -0.0016
   35SOL     OW  137   1.602   2.525   2.221  0.3998  0.1214  0.5750
   35SOL    HW1  138   1.675   2.505   2.162  1.4861  0.8567  1.6303
   35SOL    HW2  139   1.530   2.473   2.187  2.1972 -3.1133  1.2510
   35SOL     MW  140   1.602   2.515   2.209  0.0005 -0.0006 -0.0016
   36SOL     OW  141   1.686   1.988   2.718  0.1132  0.1866  0.7534
   36SOL    HW1  142   1.723   1.902   2.738 -1.4640 -0.8297 -0.5055
   36SOL    HW2  143   1.721   2.009   2.631 -0.7929  0.0454  0.3456
   36SOL     MW  144   1.696   1.980   2.710  0.0005 -0.0006 -0.0016
   37SOL     OW  145   0.606   2.364   2.560  0.2810  0.4663  0.3130
   37SOL    HW1  146   0.596   2.422   2.485 -2.4149  1.0512  1.0224
   37SOL    HW2  147   0.691   2.387   2.597  0.9139  1.3221 -1.5606
   37SOL     MW  148   0.616   2.374   2.555  0.0005 -0.0006 -0.0016
   38SOL     OW  149   2.656  -0.008   2.862  0.1296 -0.2043 -0.0805
   38SOL    HW1  150   2.711   0.030   2.794  0.7182 -0.2942  0.3403
   38SOL    HW2  151   2.572   0.037   2.853  0.7373  1.0193  0.2518
   38SOL     MW  152   2.652   0.003   2.852  0.0005 -0.0006 -0.0016
   39SOL     OW  153   2.178   2.264   1.192 -0.1965 -0.2650 -0.6260
   39SOL    HW1  154   2.088   2.234   1.185 -0.5636  0.6619  0.0167
   39SOL    HW2  155   2.217   2.208   1.259 -0.2692 -0.6839 -0.9227
   39SOL     MW  156   2.172   2.253   1.199  0.0005 -0.0006 -0.0016
   40SOL     OW  157   0.772   1.843   2.811 -0.3809  0.8131 -0.0671
   40SOL    HW1  158   0.688   1.888   2.809 -2.1078 -2.1780 -1.3186
   40SOL    HW2  159   0.789   1.821   2.720  0.3412 -1.0472  0.4860
   40SOL     MW  160   0.763   1.846   2.799  0.0005 -0.0006 -0.0016
   41SOL     OW  161   1.102   3.015   0.936 -0.2285  0.1157  0.3310
   41SOL    HW1  162   1.009   2.989   0.933 -0.0283 -1.4380  3.2243
   41SOL    HW2  163   1.149   2.939   0.901  0.0281 -0.4144  1.7470
   41SOL     MW  164   1.096   3.002   0.931  0.0005 -0.0006 -0.0016
   42SOL     OW  165   2.789   1.990   2.679  0.6389  0.2273  0.0190
   42SOL    HW1  166   2.864   1.932   2.692  0.8965  0.6450  0.4425
   42SOL    HW2  167   2.826   2.078   2.683 -0.1564  0.5430  2.6133
   42SOL     MW  168   2.804   1.994   2.681  0.0005 -0.0006 -0.0016
   43SOL     OW  169   1.996   2.499   1.727 -0.2594 -0.4976  0.1313
   43SOL    HW1  170   1.944   2.576   1.750  1.3807  0.4185  0.9332
   43SOL    HW2  171   1.964   2.474   1.641 -1.6246  0.3610  0.3507
   43SOL     MW  172   1.985   2.506   1.719  0.0005 -0.0006 -0.0016
   44SOL     OW  173   1.894   1.632   1.127  0.2403 -0.0013 -0.1020
   44SOL    HW1  174   1.896   1.573   1.052 -0.1486 -0.9759  0.6318
   44SOL    HW2  175   1.974   1.684   1.118  0.9279 -1.0720 -0.4403
   44SOL     MW  176   1.905   1.631   1.116  0.0005 -0.0006 -0.0016
   45SOL     OW  177   1.315   2.465   0.368 -0.3898  0.2803  0.0118
   45SOL    HW1  178   1.345   2.518   0.294  0.6140 -0.2984 -0.0188
   45SOL    HW2  179   1.396   2.438   0.412 -0.9022 -0.7905  0.3321
   45SOL     MW  180   1.330   2.468   0.364  0.0005 -0.0006 -0.0016
   46SOL     OW  181   0.809   0.730   1.141 -0.1676  0.3096 -0.4701
   46SOL    HW1  182   0.867   0.805   1.152 -0.7115  0.6328  0.2654
   46SOL    HW2  183   0.835   0.670   1.211 -1.1181  0.7258  0.2624
   46SOL     MW  184   0.819   0.732   1.152  0.0005 -0.0006 -0.0016
   47SOL     OW  185   2.102   1.113   3.129  0.2030 -0.5210 -0.1613
   47SOL    HW1  186   2.077   1.080   3.043 -0.6066  0.8386 -0.4831
   47SOL    HW2  187   2.197   1.115   3.127  0.2223 -1.2545 -0.7132
   47SOL     MW  188   2.111   1.109   3.118  0.0005 -0.0006 -0.0016
   48SOL     OW  189   0.631   2.650   1.661  0.0868  0.3878 -0.0386
   48SOL    HW1  190   0.655   2.568   1.618 -0.1164 -0.8780  2.1317
   48SOL    HW2  191   0.563   2.688   1.604  0.4172 -0.7672 -1.2507
   48SOL     MW  192   0.625   2.644   1.648  0.0005 -0.0006 -0.0016
   49SOL     OW  193   0.294   0.169   1.245  0.0588 -0.2150 -0.2251
   49SOL    HW1  194   0.217   0.137   1.291 -1.4440  2.4799 -0.6719
   49SOL    HW2  195   0.292   0.264   1.257  1.6506  0.2394 -2.7552
   49SOL     MW  196   0.284   0.177   1.253  0.0005 -0.0006 -0.0016
   50SOL     OW  197   1.647   0.741   1.556 -0.2794  0.0422  0.1787
   50SOL    HW1  198   1.673   0.668   1.612  1.0374 -0.3929 -0.9344
   50SOL    HW2  199   1.727   0.793   1.545 -0.8792  0.9365 -0.1001
   50SOL     MW  200   1.661   0.739   1.561  0.0005 -0.0006 -0.0016
   51SOL     OW  201   2.301   3.065   2.683 -0.0565 -0.1193 -0.3070
   51SOL    HW1  202   2.261   2.983   2.712  0.3463  0.2992  1.5867
   51SOL    HW2  203   2.311   3.055   2.588 -0.5039 -2.0290 -0.1977
   51SOL     MW  204   2.297   3.053   2.675  0.0005 -0.0006 -0.0016
   52SOL     OW  205   1.325   0.477   2.864 -0.1475  0.1258  0.0062
   52SOL    HW1  206   1.299   0.518   2.781 -0.4138  1.1930  0.5935
   52SOL    HW2  207   1.413   0.444   2.848  0.6029  2.0584 -0.1478
   52SOL     MW  208   1.333   0.478   2.851  0.0005 -0.0006 -0.0016
   53SOL     OW  209   1.926   2.835   2.587  0.4026 -0.1283  0.0964
   53SOL    HW1  210   1.933   2.739   2.586 -0.8232 -0.2570  1.0195
   53SOL    HW2  211   1.870   2.854   2.663 -0.0936  1.2673 -0.5877
   53SOL     MW  212   1.920   2.825   2.597  0.0005 -0.0006 -0.0016
   54SOL     OW  213   1.575   0.366   2.861  0.0270  0.0128 -0.0898
   54SOL    HW1  214   1.619   0.324   2.935  0.3207 -0.2394 -0.4057
   54SOL    HW2  215   1.620   0.450   2.852 -1.1341  0.8020  1.0980
   54SOL     MW  216   1.587   0.371   2.869  0.0005 -0.0006 -0.0016
   55SOL     OW  217   1.691   0.286   0.528  0.0683  0.0277 -0.2727
   55SOL    HW1  218   1.725   0.362   0.481 -0.4870  0.7330  0.4496
   55SOL    HW2  219   1.747   0.214   0.500  1.3741  0.9253 -0.0593
   55SOL     MW  220   1.703   0.286   0.518  0.0005 -0.0006 -0.0016
   56SOL     OW  221   2.206   0.349   0.764  0.3290  0.4836  0.1235
   56SOL    HW1  222   2.156   0.294   0.825 -0.2241  0.9584  0.1134
   56SOL    HW2  223   2.295   0.317   0.770  0.5434  1.3086  2.1121
   56SOL     MW  224   2.211   0.338   0.773  0.0005 -0.0006 -0.0016
   57SOL     OW  225   2.045   1.014   1.311  0.1378 -0.0473  0.0312
   57SOL    HW1  226   2.012   1.010   1.221  1.7146 -0.6906 -0.5505
   57SOL    HW2  227   2.068   1.106   1.324 -1.5049  0.3499  0.3374
   57SOL     MW  228   2.044   1.025   1.301  0.0005 -0.0006 -0.0016
   58SOL     OW  229   2.636   0.354   0.195  0.2678 -0.1908 -0.2519
   58SOL    HW1  230   2.652   0.411   0.269 -0.3850 -1.6122  1.0398
   58SOL    HW2  231   2.706   0.288   0.198  0.1979 -0.3064 -0.8526
   58SOL     MW  232   2.647   0.353   0.205  0.0005 -0.0006 -0.0016
   59SOL     OW  233   1.206   0.751   2.151 -0.2989  0.3062 -0.0296
   59SOL    HW1  234   1.264   0.724   2.079  0.1727  0.9210  0.1105
   59SOL    HW2  235   1.163   0.671   2.178  1.1595 -0.3391  0.4598
   59SOL     MW  236   1.208   0.738   2.145  0.0005 -0.0006 -0.0016
   60SOL     OW  237   2.376   0.892   2.090 -0.1603  0.0977  0.3116
   60SOL    HW1  238   2.311   0.848   2.143  0.3367 -0.6211  0.3343
   60SOL    HW2  239   2.408   0.964   2.145 -0.6437  0.2104  0.4471
   60SOL     MW  240   2.372   0.896   2.104  0.0005 -0.0006 -0.0016
   61SOL     OW  241   1.797   1.929   2.237  0.5871  0.2453  0.8449
   61SOL    HW1  242   1.810   1.865   2.307  0.0466 -0.5736  0.2142
   61SOL    HW2  243   1.708   1.913   2.206  0.7331  0.7646  0.1380
   61SOL     MW  244   1.787   1.919   2.242  0.0005 -0.0006 -0.0016
   62SOL     OW  245   2.322  -0.025   1.637 -0.1841  0.4904  0.4193
   62SOL    HW1  246   2.234   0.010   1.642 -0.1175  0.4935  2.5590
   62SOL    HW2  247   2.378   0.045   1.671  0.3646 -0.3147  1.2253
   62SOL     MW  248   2.318  -0.012   1.642  0.0005 -0.0006 -0.0016
   63SOL     OW  249   0.350   0.657   2.494  0.0605  0.3883 -0.1207
   63SOL    HW1  250   0.410   0.596   2.451  0.3572  0.5823  0.0153
   63SOL    HW2  251   0.294   0.601   2.548  0.2721  0.2270 -0.0680
   63SOL     MW  252   0.350   0.642   2.496  0.0005 -0.0006 -0.0016
   64SOL     OW  253   1.091   2.922   2.824  0.2297  0.5212  0.1145
   64SOL    HW1  254   1.087   2.863   2.749  0.0575  0.1304  0.4249
   64SOL    HW2  255   1.002   2.920   2.861  0.6002 -0.1773  0.9996
   64SOL     MW  256   1.079   2.915   2.819  0.0005 -0.0006 -0.0016
   65SOL     OW  257   1.408   0.482   2.194 -0.5289 -0.7994 -0.2107
   65SOL    HW1  258   1.435   0.566   2.232 -1.1720 -1.3375  1.4873
   65SOL    HW2  259   1.448   0.483   2.106  0.6817  0.6377  0.2979
   65SOL     MW  260   1.417   0.493   2.187  0.0005 -0.0006 -0.0016
   66SOL     OW  261   3.073   2.552   1.580 -0.2301 -0.2667 -0.6778
   66SOL    HW1  262   3.033   2.510   1.503 -0.1030  0.2346 -1.0216
   66SOL    HW2  263   3.158   2.510   1.589  0.6122  1.0739 -2.0447
   66SOL     MW  264   3.078   2.541   1.571  0.0005 -0.0006 -0.0016
   67SOL     OW  265   1.729   1.529   2.363  0.3727 -0.0369  0.4653
   67SOL    HW1  266   1.698   1.454   2.414 -0.4225 -0.2204 -0.2644
   67SOL    HW2  267   1.667   1.537   2.291 -0.2780  2.0862  1.1819
   67SOL     MW  268   1.717   1.521   2.361  0.0005 -0.0006 -0.0016
   68SOL     OW  269   0.137   1.909   0.406 -0.5007 -0.0769  0.5557
   68SOL    HW1  270   0.203   1.876   0.345  0.5471  2.8785 -0.0594
   68SOL    HW2  271   0.163   1.872   0.491  0.5984 -0.7592 -0.0414
   68SOL     MW  272   0.149   1.900   0.409  0.0005 -0.0006 -0.0016
   69SOL     OW  273   0.543   2.988   0.751 -0.0821  0.0354  0.0079
   69SOL    HW1  274   0.620   2.934   0.768  0.4401  0.4039 -1.0710
   69SOL    HW2  275   0.511   3.011   0.837  1.4770  0.5040  0.5035
   69SOL     MW  276   0.549   2.984   0.764  0.0005 -0.0006 -0.0016
   70SOL     OW  277   3.039   2.758   0.681 -0.5787 -0.3085  0.1246
   70SOL    HW1  278   3.019   2.665   0.690 -1.4281 -0.1385  0.0677
   70SOL    HW2  279   2.956   2.802   0.697  0.0607  0.5171  1.3286
   70SOL     MW  280   3.026   2.752   0.684  0.0005 -0.0006 -0.0016
   71SOL     OW  281   2.327   2.820   1.735 -0.2385 -0.3785 -0.2988
   71SOL    HW1  282   2.317   2.912   1.708 -1.7744 -0.7033 -0.9273
   71SOL    HW2  283   2.299   2.818   1.826 -0.6443 -0.3042 -0.4215
   71SOL     MW  284   2.322   2.832   1.743  0.0005 -0.0006 -0.0016
   72SOL     OW  285   2.994   0.139   0.081 -0.2617 -0.2267  0.4803
   72SOL    HW1  286   3.010   0.175  -0.006 -0.3425  0.4587  0.7411
   72SOL    HW2  287   3.046   0.059   0.083 -0.7422 -0.5772 -0.4117
   72SOL     MW  288   3.003   0.134   0.070  0.0005 -0.0006 -0.0016
   73SOL     OW  289   1.588   0.230   1.615  0.0345 -0.0750 -0.2529
   73SOL    HW1  290   1.515   0.192   1.664  1.3456 -0.1965  1.7085
   73SOL    HW2  291   1.563   0.322   1.604 -1.4154 -0.5965 -1.6365
   73SOL     MW  292   1.576   0.237   1.620  0.0005 -0.0006 -0.0016
   74SOL     OW  293   0.022   2.979   1.709 -0.6834 -0.1178 -0.4049
   74SOL    HW1  294   0.034   3.049   1.645 -1.7980  0.9272  0.4715
   74SOL    HW2  295   0.103   2.978   1.760 -1.1965  1.5739  0.5186
   74SOL     MW  296   0.034   2.988   1.707  0.0005 -0.0006 -0.0016
   75SOL     OW  297   2.608   2.782   0.860  0.1784 -0.2783  0.1186
   75SOL    HW1  298   2.621   2.784   0.955 -1.9567  0.4834  0.4546
   75SOL    HW2  299   2.592   2.690   0.840 -3.6504 -0.0569  1.2837
   75SOL     MW  300   2.607   2.770   0.870  0.0005 -0.0006 -0.0016
   76SOL     OW  301   0.123   2.299   0.677  0.5419  0.0810  0.3049
   76SOL    HW1  302   0.052   2.239   0.700  0.6349 -0.4509 -0.7389
   76SOL    HW2  303   0.202   2.254   0.708  0.6682 -0.6434 -0.9726
   76SOL     MW  304   0.124   2.285   0.684  0.0005 -0.0006 -0.0016
   77SOL     OW  305   1.664   2.297   1.211 -0.3136 -0.0916  0.4099
   77SOL    HW1  306   1.601   2.320   1.279 -0.9018  0.3399 -0.2656
   77SOL    HW2  307   1.646   2.358   1.140  0.4996 -0.3311 -0.0149
   77SOL     MW  308   1.654   2.307   1.211  0.0005 -0.0006 -0.0016
   78SOL     OW  309   0.528   2.992   1.537 -0.1510  0.6959  0.2804
   78SOL    HW1  310   0.512   2.976   1.444  1.2335 -1.7561  0.3667
   78SOL    HW2  311   0.444   2.975   1.580 -0.9712  2.4942 -0.5258
   78SOL     MW  312   0.515   2.988   1.531  0.0005 -0.0006 -0.0016
   79SOL     OW  313   0.965   1.020   1.151 -0.2294  0.2433  0.2851
   79SOL    HW1  314   1.040   1.059   1.104 -0.2658 -0.7072 -0.6074
   79SOL    HW2  315   0.912   1.095   1.178 -0.6082  0.8462 -1.9113
   79SOL     MW  316   0.968   1.035   1.148  0.0005 -0.0006 -0.0016
   80SOL     OW  317   2.112   2.883   2.781 -0.1569 -0.3983 -0.1429
   80SOL    HW1  318   2.144   2.796   2.757 -0.1811 -0.7553  1.0657
   80SOL    HW2  319   2.037   2.898   2.723 -2.4102 -2.7150  1.9307
   80SOL     MW  320   2.106   2.874   2.771  0.0005 -0.0006 -0.0016
   81SOL     OW  321   0.697   0.065   0.916  0.0644  0.0116 -0.6517
   81SOL    HW1  322   0.740   0.148   0.900 -0.1253  0.3284  0.3751
   81SOL    HW2  323   0.604   0.082   0.899  0.1717 -0.3237 -1.6145
   81SOL     MW  324   0.690   0.078   0.912  0.0005 -0.0006 -0.0016
   82SOL     OW  325   1.384   0.816   0.905  0.0593  0.4500  0.5560
   82SOL    HW1  326   1.291   0.836   0.893 -0.1967  2.0554  4.0330
   82SOL    HW2  327   1.425   0.841   0.822 -2.1077  3.4743  0.2585
   82SOL     MW  328   1.377   0.822   0.892  0.0005 -0.0006 -0.0016
   83SOL     OW  329   1.536   1.557   2.961  0.1849 -0.0157  0.3494
   83SOL    HW1  330   1.507   1.512   3.040  2.9010  0.5611  1.7797
   83SOL    HW2  331   1.479   1.633   2.954 -1.4056 -1.1448  0.5523
   83SOL     MW  332   1.525   1.561   2.970  0.0005 -0.0006 -0.0016
   84SOL     OW  333   0.089   0.150   2.721  0.2822  0.3329  0.2283
   84SOL    HW1  334   0.174   0.108   2.728  0.0900  0.0015  0.5684
   84SOL    HW2  335   0.068   0.144   2.627  0.8122  0.7851  0.0725
   84SOL     MW  336   0.097   0.144   2.710  0.0005 -0.0006 -0.0016
   85SOL     OW  337   1.327   2.390   1.801 -0.2851 -0.0303  0.2541
   85SOL    HW1  338   1.303   2.477   1.832 -2.6527 -0.2932 -0.6414
   85SOL    HW2  339   1.393   2.407   1.733 -0.5249  1.0445  0.2669
   85SOL     MW  340   1.332   2.403   1.796  0.0005 -0.0006 -0.0016
   86SOL     OW  341   1.820   3.040   1.207  0.2654 -0.3547  0.0853
   86SOL    HW1  342   1.808   3.079   1.121 -0.2846 -2.5006 -0.8813
   86SOL    HW2  343   1.740   3.062   1.255 -0.1971 -0.5684 -0.5672
   86SOL     MW  344   1.808   3.047   1.202  0.0005 -0.0006 -0.0016
   87SOL     OW  345   1.213   2.566   1.405  0.1363  0.2006  0.1468
   87SOL    HW1  346   1.196   2.486   1.454 -2.2026  0.9816  0.7490
   87SOL    HW2  347   1.226   2.536   1.315  0.8918 -0.9662  0.6298
   87SOL     MW  348   1.212   2.552   1.399  0.0005 -0.0006 -0.0016
   88SOL     OW  349   0.726   1.303   0.047 -0.8010 -0.2572 -0.2565
   88SOL    HW1  350   0.645   1.252   0.046 -0.1524 -1.3617  0.8875
   88SOL    HW2  351   0.786   1.254  -0.009 -0.7503  0.3052 -0.7093
   88SOL     MW  352   0.723   1.290   0.040  0.0005 -0.0006 -0.0016
   89SOL     OW  353   2.879   3.012   1.754 -0.2844 -0.0335  0.0579
   89SOL    HW1  354   2.960   2.962   1.768 -1.0161 -1.6090 -0.9548
   89SOL    HW2  355   2.820   2.949   1.712 -1.1290  1.8307 -1.7076
   89SOL     MW  356   2.882   2.997   1.750  0.0005 -0.0006 -0.0016
   90SOL     OW  357   1.159   2.548   0.578  0.2170  0.0978  0.3347
   90SOL    HW1  358   1.199   2.528   0.493 -0.5656 -0.7829  0.1636
   90SOL    HW2  359   1.095   2.478   0.592  0.5096  0.0828  1.7691
   90SOL     MW  360   1.156   2.536   0.569  0.0005 -0.0006 -0.0016
   91SOL     OW  361   3.041   2.258   0.242 -0.2767 -0.2602  0.6459
   91SOL    HW1  362   2.991   2.184   0.210  0.9322 -0.5918 -0.5761
   91SOL    HW2  363   3.106   2.275   0.174  1.0564  0.3545  1.9976
   91SOL     MW  364   3.043   2.251   0.229  0.0005 -0.0006 -0.0016
   92SOL     OW  365   1.495   0.108   2.224  0.2146 -1.0128  0.2188
   92SOL    HW1  366   1.519   0.130   2.314  0.8063 -0.8618  0.0284
   92SOL    HW2  367   1.403   0.133   2.216 -0.0936 -1.8497  1.0452
   92SOL     MW  368   1.486   0.114   2.234  0.0005 -0.0006 -0.0016
   93SOL     OW  369   2.021   1.362   1.934  0.1664  0.6519 -0.2241
   93SOL    HW1  370   1.964   1.363   2.011 -0.6943  1.9847 -0.8483
   93SOL    HW2  371   1.960   1.353   1.860  1.0570 -2.2277 -0.7339
   93SOL     MW  372   2.006   1.361   1.934  0.0005 -0.0006 -0.0016
   94SOL     OW  373   1.464   2.701   0.169  0.5064 -0.2439  0.4194
   94SOL    HW1  374   1.439   2.665   0.084  0.9257  1.8570 -0.6592
   94SOL    HW2  375   1.538   2.647   0.197 -1.5284 -2.9402  1.0147
   94SOL     MW  376   1.471   2.690   0.162  0.0005 -0.0006 -0.0016
   95SOL     OW  377   0.176   3.044   2.280  0.0602 -0.3121  0.3233
   95SOL    HW1  378   0.260   3.075   2.315  0.3922 -0.6600 -0.1503
   95SOL    HW2  379   0.111   3.098   2.323  0.5773  0.4640  0.1539
   95SOL     MW  380   0.179   3.055   2.290  0.0005 -0.0006 -0.0016
   96SOL     OW  381   1.988   1.686   0.483 -0.4830 -0.3247 -0.0648
   96SOL    HW1  382   2.005   1.631   0.407 -0.0707  2.3380 -2.0434
   96SOL    HW2  383   2.073   1.695   0.526 -0.4017 -0.6316 -0.1640
   96SOL     MW  384   2.001   1.680   0.479  0.0005 -0.0006 -0.0016
   97SOL     OW  385   0.844   0.973   0.237  0.0910  0.0679  0.1101
   97SOL    HW1  386   0.907   1.021   0.183  1.5241 -1.9493 -0.1234
   97SOL    HW2  387   0.860   1.004   0.326  0.9219  0.1192 -0.0447
   97SOL     MW  388   0.854   0.983   0.241  0.0005 -0.0006 -0.0016
   98SOL     OW  389   2.913   1.108   0.818  0.3451  0.1970 -0.4807
   98SOL    HW1  390   2.867   1.180   0.860 -1.6541 -0.4010 -1.5404
   98SOL    HW2  391   2.886   1.030   0.867 -0.6725 -0.2877 -1.7581
   98SOL     MW  392   2.904   1.107   0.830  0.0005 -0.0006 -0.0016
   99SOL     OW  393   2.943   2.672   0.168  0.0472  0.0681  0.0861
   99SOL    HW1  394   2.970   2.609   0.101  1.6875  0.1401  0.6526
   99SOL    HW2  395   3.024   2.705   0.206 -0.7697  2.0062  0.3189
   99SOL     MW  396   2.957   2.668   0.164  0.0005 -0.0006 -0.0016
  100SOL     OW  397   1.526   2.504   0.988  0.0192 -0.0336  0.1010
  100SOL    HW1  398   1.451   2.500   0.927 -0.3224 -1.0016  0.5636
  100SOL    HW2  399   1.579   2.577   0.956 -1.9767  1.8136  0.7340
  100SOL     MW  400   1.523   2.513   0.976  0.0005 -0.0006 -0.0016
  101SOL     OW  401   1.253   1.756   2.736  0.0489 -0.0298  0.0289
  101SOL    HW1  402   1.274   1.846   2.710  1.5903 -1.0090 -2.5308
  101SOL    HW2  403   1.180   1.731   2.680  1.2231 -1.1078 -1.0934
  101SOL     MW  404   1.246   1.765   2.725  0.0005 -0.0006 -0.0016
  102SOL     OW  405   1.422   2.032   1.626  0.0621  0.0233  0.0136
  102SOL    HW1  406   1.351   2.048   1.563 -1.4000 -1.5519  1.1445
  102SOL    HW2  407   1.433   1.937   1.624 -0.2215 -0.1076  2.2841
  102SOL     MW  408   1.414   2.022   1.617  0.0005 -0.0006 -0.0016
  103SOL     OW  409   1.939   3.012   0.095 -0.3279  0.6213  0.2799
  103SOL    HW1  410   1.925   3.098   0.134 -1.0556  0.9895 -0.7326
  103SOL    HW2  411   2.014   3.024   0.037 -0.1383  0.4446  0.4855
  103SOL     MW  412   1.947   3.024   0.093  0.0005 -0.0006 -0.0016
  104SOL     OW  413   3.035   2.485   2.739 -0.1814  0.6504  0.1969
  104SOL    HW1  414   3.080   2.493   2.823 -0.5703  1.3752  0.3397
  104SOL    HW2  415   3.001   2.395   2.739 -2.2177  1.3519  1.8544
  104SOL     MW  416   3.037   2.474   2.749  0.0005 -0.0006 -0.0016
  105SOL     OW  417   1.377   0.364   3.112 -0.1782 -0.3960 -0.1792
  105SOL    HW1  418   1.404   0.280   3.075 -0.9798 -1.0278  0.6262
  105SOL    HW2  419   1.379   0.425   3.038  3.0657 -0.4456 -0.2507
  105SOL     MW  420   1.381   0.361   3.097  0.0005 -0.0006 -0.0016
  106SOL     OW  421   1.261   2.010   1.876  0.0755 -0.2144 -0.0956
  106SOL    HW1  422   1.294   2.037   1.790 -2.2263 -0.6854 -1.1864
  106SOL    HW2  423   1.168   2.032   1.875  0.3624  1.7045  3.1276
  106SOL     MW  424   1.254   2.016   1.865  0.0005 -0.0006 -0.0016
  107SOL     OW  425   1.805   1.301   1.781 -0.8259  0.4328  0.3246
  107SOL    HW1  426   1.733   1.333   1.835 -0.8406  1.0427 -0.0491
  107SOL    HW2  427   1.783   1.328   1.692 -0.7888 -0.5400 -0.0003
  107SOL     MW  428   1.793   1.308   1.776  0.0005 -0.0006 -0.0016
  108SOL     OW  429   2.663   0.965   0.935  0.3786  0.7175 -0.1800
  108SOL    HW1  430   2.721   0.896   0.901 -1.1891 -0.2959 -0.9593
  108SOL    HW2  431   2.705   0.996   1.015  2.0890  0.1947 -0.8503
  108SOL     MW  432   2.676   0.960   0.941  0.0005 -0.0006 -0.0016
  109SOL     OW  433   1.790   0.431   2.102 -0.2948 -0.2063 -0.5136
  109SOL    HW1  434   1.850   0.366   2.066  0.0613  0.3028 -0.8629
  109SOL    HW2  435   1.786   0.411   2.195  1.7114  0.7150 -0.1761
  109SOL     MW  436   1.797   0.420   2.109  0.0005 -0.0006 -0.0016
  110SOL     OW  437   1.395   0.758   1.628  0.3927  0.6397 -0.3103
  110SOL    HW1  438   1.489   0.758   1.608  0.5243 -0.6997  0.2053
  110SOL    HW2  439   1.390   0.764   1.723  0.0870 -1.8903 -0.0956
  110SOL     MW  440   1.407   0.759   1.637  0.0005 -0.0006 -0.0016
  111SOL     OW  441   2.820   2.244   2.973 -0.8442  0.3845  0.2264
  111SOL    HW1  442   2.874   2.316   3.005  0.2656 -0.9608  1.5150
  111SOL    HW2  443   2.850   2.231   2.883 -0.6899  1.1905  0.1519
  111SOL     MW  444   2.831   2.251   2.965  0.0005 -0.0006 -0.0016
  112SOL     OW  445   2.044   1.390   3.098  0.2143  0.8630 -0.5804
  112SOL    HW1  446   2.064   1.300   3.075 -1.2160  0.7702 -1.5799
  112SOL    HW2  447   2.115   1.441   3.060  0.3747  0.2714 -1.0812
  112SOL     MW  448   2.055   1.385   3.090  0.0005 -0.0006 -0.0016
  113SOL     OW  449   1.851   2.066   0.042  0.2296  0.2071 -0.2850
  113SOL    HW1  450   1.875   1.982   0.003  0.8622  0.0510  0.4365
  113SOL    HW2  451   1.905   2.130  -0.006 -0.9047  0.3302 -1.4604
  113SOL     MW  452   1.861   2.063   0.031  0.0005 -0.0006 -0.0016
  114SOL     OW  453   2.386   0.137   1.299 -0.2540 -0.2622  0.0775
  114SOL    HW1  454   2.405   0.045   1.317 -0.0624 -0.3649 -0.6054
  114SOL    HW2  455   2.323   0.134   1.226  1.5450  0.1673 -1.5665
  114SOL     MW  456   2.380   0.124   1.292  0.0005 -0.0006 -0.0016
  115SOL     OW  457   1.475   0.325   2.612  0.3273 -0.2180 -0.1064
  115SOL    HW1  458   1.513   0.332   2.699  0.6091 -2.5832  0.0029
  115SOL    HW2  459   1.550   0.320   2.553  0.2380 -2.4646 -0.1031
  115SOL     MW  460   1.489   0.326   2.616  0.0005 -0.0006 -0.0016
  116SOL     OW  461   1.846   0.375   1.464 -0.7205  0.0329 -0.2411
  116SOL    HW1  462   1.767   0.349   1.512  0.7148  0.0929  2.3654
  116SOL    HW2  463   1.880   0.449   1.513  2.2257 -1.4939  0.2332
  116SOL     MW  464   1.840   0.381   1.477  0.0005 -0.0006 -0.0016
  117SOL     OW  465   1.892   1.442   1.323 -0.1216 -0.2116 -1.0312
  117SOL    HW1  466   1.890   1.489   1.406  0.7260 -2.2706  0.2334
  117SOL    HW2  467   1.885   1.510   1.256 -0.5169  1.5294  0.7006
  117SOL     MW  468   1.891   1.456   1.325  0.0005 -0.0006 -0.0016
  118SOL     OW  469   2.397   2.054   2.452  0.3521  0.4564  0.3775
  118SOL    HW1  470   2.393   2.099   2.536  0.2912  1.1348  0.0185
  118SOL    HW2  471   2.313   2.073   2.411  0.6621  0.7259 -0.1379
  118SOL     MW  472   2.386   2.062   2.457  0.0005 -0.0006 -0.0016
  119SOL     OW  473   1.331   0.410   1.135  0.1914  0.7488 -0.4516
  119SOL    HW1  474   1.381   0.330   1.118 -1.2871 -0.6360  1.2097
  119SOL    HW2  475   1.242   0.387   1.107 -0.1783  1.9809 -0.3143
  119SOL     MW  476   1.326   0.397   1.129  0.0005 -0.0006 -0.0016
  120SOL     OW  477   0.920   0.814   2.592  0.2607  0.2660  0.0845
  120SOL    HW1  478   0.832   0.823   2.557  0.0205 -0.9327  0.3499
  120SOL    HW2  479   0.952   0.904   2.599 -1.2790  0.7947  0.8677
  120SOL     MW  480   0.913   0.827   2.589  0.0005 -0.0006 -0.0016
  121SOL     OW  481   2.951   2.487   1.350 -0.6323  0.2701  0.5459
  121SOL    HW1  482   3.028   2.486   1.294 -2.5064  4.1816 -2.5271
  121SOL    HW2  483   2.882   2.447   1.298 -1.5665  0.2085  1.7737
  121SOL     MW  484   2.952   2.481   1.336  0.0005 -0.0006 -0.0016
  122SOL     OW  485   2.359   0.561   0.502  0.0535 -0.1368  0.0061
  122SOL    HW1  486   2.317   0.642   0.529  1.4754  0.3806  0.7647
  122SOL    HW2  487   2.446   0.588   0.472 -0.0402 -1.1927 -1.3366
  122SOL     MW  488   2.365   0.575   0.501  0.0005 -0.0006 -0.0016
  123SOL     OW  489   2.567   0.215   2.578 -0.2715  0.5927 -0.0535
  123SOL    HW1  490   2.522   0.259   2.649 -1.4648  2.0114 -1.6238
  123SOL    HW2  491   2.584   0.283   2.513 -1.2699 -1.0122 -2.1338
  123SOL     MW  492   2.564   0.229   2.578  0.0005 -0.0006 -0.0016
  124SOL     OW  493   2.504   2.687   1.308 -0.0744  0.3476  0.2105
  124SOL    HW1  494   2.581   2.728   1.269  0.1529  0.1982  0.4995
  124SOL    HW2  495   2.433   2.709   1.248  0.4512 -0.7728 -0.8741
  124SOL     MW  496   2.505   2.695   1.296  0.0005 -0.0006 -0.0016
  125SOL     OW  497   0.958   0.704   2.853  0.0301  0.6083 -0.2907
  125SOL    HW1  498   0.939   0.613   2.874  1.8724  0.0488 -0.8223
  125SOL    HW2  499   0.966   0.705   2.757  1.1083  1.0674 -0.2123
  125SOL     MW  500   0.957   0.692   2.843  0.0005 -0.0006 -0.0016
  126SOL     OW  501   0.711   0.826   1.416  0.2552 -0.0149 -0.3648
  126SOL    HW1  502   0.691   0.773   1.493  2.2209  0.2041  0.3545
  126SOL    HW2  503   0.802   0.854   1.429  0.1378  1.3027 -2.0301
  126SOL     MW  504   0.720   0.823   1.428  0.0005 -0.0006 -0.0016
  127SOL     OW  505   1.734   1.054   0.128  0.0211  0.4805  0.7327
  127SOL    HW1  506   1.759   0.989   0.193  1.4778 -1.6198 -1.7491
  127SOL    HW2  507   1.669   1.108   0.172  1.2960 -0.4603  4.0525
  127SOL     MW  508   1.729   1.053   0.142  0.0005 -0.0006 -0.0016
  128SOL     OW  509   2.094   0.201   0.545  0.0596  0.7533  0.2364
  128SOL    HW1  510   2.143   0.257   0.605 -0.6046  1.2949  0.2865
  128SOL    HW2  511   2.008   0.192   0.586  0.2652 -0.6205  0.4186
  128SOL     MW  512   2.089   0.207   0.558  0.0005 -0.0006 -0.0016
  129SOL     OW  513   3.099   1.752   3.085 -0.2826 -0.5392 -0.0615
  129SOL    HW1  514   3.008   1.780   3.076  0.1846  0.8229 -0.8095
  129SOL    HW2  515   3.094   1.662   3.117 -1.9089 -1.1022 -1.7825
  129SOL     MW  516   3.087   1.744   3.088  0.0005 -0.0006 -0.0016
  130SOL     OW  517   1.189   0.157   2.182  0.2988 -0.1109 -0.3827
  130SOL    HW1  518   1.122   0.208   2.135  2.2519  1.6113 -1.4495
  130SOL    HW2  519   1.179   0.068   2.148 -1.8141 -0.0544 -0.0526
  130SOL     MW  520   1.179   0.152   2.171  0.0005 -0.0006 -0.0016
  131SOL     OW  521   2.007   0.471   3.096  0.1020  0.5006  0.1205
  131SOL    HW1  522   2.101   0.475   3.109  0.2062  3.7625 -0.7683
  131SOL    HW2  523   1.971   0.529   3.164 -1.1985 -0.0286 -0.0762
  131SOL     MW  524   2.014   0.479   3.107  0.0005 -0.0006 -0.0016
  132SOL     OW  525   2.605   1.928   2.259  0.2466  0.1231  0.0553
  132SOL    HW1  526   2.515   1.937   2.229  0.4237  1.5096 -0.1287
  132SOL    HW2  527   2.648   1.876   2.191 -0.1676  0.3139 -0.3545
  132SOL     MW  528   2.599   1.922   2.246  0.0005 -0.0006 -0.0016
  133SOL     OW  529   2.942   1.424   2.938 -0.4168  0.1946  0.1762
  133SOL    HW1  530   2.861   1.466   2.908 -0.4477 -0.6234 -0.9562
  133SOL    HW2  531   3.011   1.471   2.892 -0.4433 -0.8452 -0.9974
  133SOL     MW  532   2.940   1.435   2.928  0.0005 -0.0006 -0.0016
  134SOL     OW  533   1.628   2.233   0.061 -0.3546  0.4814 -0.4018
  134SOL    HW1  534   1.690   2.161   0.067 -0.5472  0.3270 -0.2275
  134SOL    HW2  535   1.561   2.202   0.001 -1.6144 -0.3942  1.3412
  134SOL     MW  536   1.627   2.220   0.054  0.0005 -0.0006 -0.0016
  135SOL     OW  537   1.681   2.567   1.433 -0.4554  0.1445 -0.3663
  135SOL    HW1  538   1.720   2.603   1.353 -1.0236  0.1159 -0.6595
  135SOL    HW2  539   1.711   2.476   1.435 -0.6106  0.0856 -0.6566
  135SOL     MW  540   1.690   2.560   1.423  0.0005 -0.0006 -0.0016
  136SOL     OW  541   2.695   0.726   2.444  0.1752  0.2979  0.4232
  136SOL    HW1  542   2.718   0.791   2.377  0.6983  0.4323  0.7301
  136SOL    HW2  543   2.622   0.766   2.491 -1.2771 -0.4771 -1.0668
  136SOL     MW  544   2.688   0.740   2.442  0.0005 -0.0006 -0.0016
  137SOL     OW  545   1.384   1.034   2.719 -0.3611 -0.1603 -0.3557
  137SOL    HW1  546   1.353   1.043   2.810  1.0429 -0.9183  0.2316
  137SOL    HW2  547   1.332   0.961   2.684  0.1025 -0.8411  0.3318
  137SOL     MW  548   1.373   1.026   2.726  0.0005 -0.0006 -0.0016
  138SOL     OW  549   2.478   1.566   1.885  0.2464 -0.1375  0.2917
  138SOL    HW1  550   2.417   1.637   1.903 -0.1031 -0.4082  0.1988
  138SOL    HW2  551   2.559   1.609   1.861  0.8286  0.2536  2.7119
  138SOL     MW  552   2.480   1.581   1.884  0.0005 -0.0006 -0.0016
  139SOL     OW  553   2.326   0.778   2.479  0.3199 -0.0876  0.7247
  139SOL    HW1  554   2.247   0.749   2.524  1.0678 -1.2396  1.3732
  139SOL    HW2  555   2.309   0.760   2.387 -0.9500  1.6206  0.5842
  139SOL     MW  556   2.314   0.772   2.473  0.0005 -0.0006 -0.0016
  140SOL     OW  557   1.411   0.112   1.788 -0.7546  0.1885 -0.0937
  140SOL    HW1  558   1.465   0.135   1.864  0.6022  1.2658 -1.3273
  140SOL    HW2  559   1.413   0.016   1.785 -0.6206  0.1432  1.0735
  140SOL     MW  560   1.418   0.102   1.797  0.0005 -0.0006 -0.0016
  141SOL     OW  561   1.707   2.607   0.581 -0.0859  0.3842  0.4313
  141SOL    HW1  562   1.616   2.610   0.609 -0.6243 -0.6749 -1.0928
  141SOL    HW2  563   1.756   2.586   0.661 -1.1053  1.2623  1.3305
  141SOL     MW  564   1.702   2.605   0.595  0.0005 -0.0006 -0.0016
  142SOL     OW  565   1.130   3.056   2.075  0.3074  0.3372  0.1281
  142SOL    HW1  566   1.151   3.061   1.982  2.6217  1.7375  0.6289
  142SOL    HW2  567   1.147   2.964   2.098 -1.9919 -0.4843 -1.0922
  142SOL     MW  568   1.135   3.045   2.066  0.0005 -0.0006 -0.0016
  143SOL     OW  569  -0.008   0.544   2.428 -0.0447  0.7375 -0.3830
  143SOL    HW1  570   0.041   0.512   2.504  1.8480  1.7774 -1.0791
  143SOL    HW2  571   0.058   0.589   2.375 -1.8417  2.5232 -1.2423
  143SOL     MW  572   0.007   0.546   2.431  0.0005 -0.0006 -0.0016
  144SOL     OW  573   2.497   1.982   1.893 -0.6644  0.2047 -0.0791
  144SOL    HW1  574   2.582   1.943   1.911  0.4463  1.2241 -2.6754
  144SOL    HW2  575   2.490   2.054   1.955  1.2867  1.3268 -1.0998
  144SOL     MW  576   2.507   1.986   1.904  0.0005 -0.0006 -0.0016
  145SOL     OW  577   2.954   2.411   0.428 -0.7337 -0.2592  0.1851
  145SOL    HW1  578   2.978   2.336   0.374 -2.0500 -0.9688  0.5257
  145SOL    HW2  579   2.899   2.465   0.372 -0.8750 -0.2363  0.3436
  145SOL     MW  580   2.950   2.408   0.414  0.0005 -0.0006 -0.0016
  146SOL     OW  581   0.153   2.346   1.527 -0.0904  0.4644 -0.5212
  146SOL    HW1  582   0.094   2.278   1.560  0.7370 -0.1065 -0.1720
  146SOL    HW2  583   0.219   2.356   1.596  2.0473 -1.1951 -2.1686
  146SOL     MW  584   0.154   2.338   1.540  0.0005 -0.0006 -0.0016
  147SOL     OW  585   0.334   2.272   2.664 -0.5677 -0.2216 -0.1562
  147SOL    HW1  586   0.425   2.252   2.641  0.7372  3.1714  1.3450
  147SOL    HW2  587   0.284   2.254   2.584  1.4574 -1.6476 -1.1847
  147SOL     MW  588   0.339   2.267   2.651  0.0005 -0.0006 -0.0016
  148SOL     OW  589   1.831   2.820   2.151 -0.3168 -0.1408  0.3238
  148SOL    HW1  590   1.909   2.823   2.096  0.3033  0.6273  1.2053
  148SOL    HW2  591   1.865   2.814   2.240 -1.2991 -3.2032  0.6001
  148SOL     MW  592   1.845   2.820   2.155  0.0005 -0.0006 -0.0016
  149SOL     OW  593   2.279   2.055   0.556 -0.0052  0.8568  0.5399
  149SOL    HW1  594   2.366   2.060   0.516  0.2513  1.8868  1.1886
  149SOL    HW2  595   2.253   1.963   0.546  1.4923  0.3632  1.0440
  149SOL     MW  596   2.287   2.044   0.549  0.0005 -0.0006 -0.0016
  150SOL     OW  597   0.076   0.174   1.787 -0.3075  0.1555 -0.1260
  150SOL    HW1  598   0.027   0.206   1.863 -0.2416 -1.1369  0.4837
  150SOL    HW2  599   0.149   0.235   1.779 -1.5365  1.6128 -0.5351
  150SOL     MW  600   0.079   0.186   1.796  0.0005 -0.0006 -0.0016
  151SOL     OW  601   1.483   2.960   1.486 -0.2794  0.2095  0.1847
  151SOL    HW1  602   1.392   2.990   1.489 -0.0453  0.9318  0.3144
  151SOL    HW2  603   1.479   2.874   1.446 -1.0736  0.0496  0.5909
  151SOL     MW  604   1.471   2.953   1.482  0.0005 -0.0006 -0.0016
  152SOL     OW  605   2.330   1.828   2.185  0.0954 -0.5040 -0.2374
  152SOL    HW1  606   2.273   1.902   2.207 -0.4993 -1.1771  0.5636
  152SOL    HW2  607   2.302   1.802   2.097  1.7208  1.4937 -1.4406
  152SOL     MW  608   2.319   1.834   2.177  0.0005 -0.0006 -0.0016
  153SOL     OW  609   0.472   1.139   0.341  0.1542 -0.3355  0.1313
  153SOL    HW1  610   0.487   1.049   0.369 -0.6951 -0.7500 -0.7132
  153SOL    HW2  611   0.507   1.142   0.252 -0.3863  0.0003 -0.0699
  153SOL     MW  612   0.479   1.128   0.333  0.0005 -0.0006 -0.0016
  154SOL     OW  613   2.800   1.093   1.127  0.4733  0.2696  0.1817
  154SOL    HW1  614   2.786   1.186   1.108  1.5293  0.6402  1.1243
  154SOL    HW2  615   2.895   1.083   1.131  0.3614 -0.7496  0.5997
  154SOL     MW  616   2.810   1.104   1.125  0.0005 -0.0006 -0.0016
  155SOL     OW  617   2.104   0.731   1.891 -0.2405 -0.2478 -0.1809
  155SOL    HW1  618   2.176   0.675   1.919  0.4599 -0.0386 -1.5096
  155SOL    HW2  619   2.138   0.820   1.896 -0.8962 -0.0271  0.5829
  155SOL     MW  620   2.117   0.735   1.895  0.0005 -0.0006 -0.0016
  156SOL     OW  621   1.944   0.213   0.025  0.4696 -0.3000 -0.1131
  156SOL    HW1  622   2.002   0.217   0.100  1.9884  0.5019 -1.2865
  156SOL    HW2  623   1.972   0.284  -0.032 -0.3012 -1.1961 -1.6785
  156SOL     MW  624   1.955   0.222   0.027  0.0005 -0.0006 -0.0016
  157SOL     OW  625   1.840   2.632   1.971  0.1260 -0.1082 -0.4031
  157SOL    HW1  626   1.810   2.700   2.031  1.6810  1.6609 -1.4931
  157SOL    HW2  627   1.801   2.655   1.887 -0.5260 -1.4652 -0.5030
  157SOL     MW  628   1.831   2.644   1.968  0.0005 -0.0006 -0.0016
  158SOL     OW  629   1.196   0.429   2.387 -0.4277 -0.1502 -0.3960
  158SOL    HW1  630   1.267   0.410   2.326 -0.8983  0.0475 -1.0187
  158SOL    HW2  631   1.125   0.371   2.358 -0.9616  0.6056 -0.6076
  158SOL     MW  632   1.196   0.419   2.375  0.0005 -0.0006 -0.0016
  159SOL     OW  633   0.407   0.160   1.894  0.3084 -0.4491  0.6844
  159SOL    HW1  634   0.385   0.067   1.902  1.8072 -0.9126 -0.1394
  159SOL    HW2  635   0.426   0.172   1.801  1.4194  0.3566  0.9942
  159SOL     MW  636   0.407   0.150   1.883  0.0005 -0.0006 -0.0016
  160SOL     OW  637   2.307   1.264   2.186 -0.3312  0.0632 -0.7084
  160SOL    HW1  638   2.288   1.357   2.188  1.3884  0.4330 -0.2348
  160SOL    HW2  639   2.222   1.222   2.170 -1.5278  1.5597  1.3411
  160SOL     MW  640   2.294   1.270   2.184  0.0005 -0.0006 -0.0016
  161SOL     OW  641   2.856   0.607   1.200  0.0019  0.1780  0.0378
  161SOL    HW1  642   2.890   0.536   1.254  0.1715  0.6752  0.6048
  161SOL    HW2  643   2.840   0.679   1.262 -1.8000  0.0803 -0.2444
  161SOL     MW  644   2.858   0.607   1.215  0.0005 -0.0006 -0.0016
  162SOL     OW  645   2.291   0.510   2.544  0.3449 -0.6564 -0.3311
  162SOL    HW1  646   2.339   0.579   2.500 -0.1506  1.1058  1.7267
  162SOL    HW2  647   2.319   0.516   2.636 -2.3737 -0.7781  0.5901
  162SOL     MW  648   2.301   0.519   2.550  0.0005 -0.0006 -0.0016
  163SOL     OW  649   1.023   0.683   0.494 -0.0993 -0.0273  0.0787
  163SOL    HW1  650   0.991   0.701   0.405  0.2996  1.4578  0.2005
  163SOL    HW2  651   1.111   0.720   0.495 -0.9298  2.1472  1.7584
  163SOL     MW  652   1.030   0.690   0.482  0.0005 -0.0006 -0.0016
  164SOL     OW  653   0.621   0.332   0.050  0.1552 -0.0766  0.3711
  164SOL    HW1  654   0.655   0.420   0.033 -0.1625  0.0497  0.3709
  164SOL    HW2  655   0.696   0.274   0.039  0.1712  0.1037 -0.4770
  164SOL     MW  656   0.635   0.336   0.047  0.0005 -0.0006 -0.0016
  165SOL     OW  657   1.424   2.200   1.971  0.0763  0.1020 -0.2754
  165SOL    HW1  658   1.354   2.138   1.951 -0.2205  0.5455 -0.6576
  165SOL    HW2  659   1.401   2.278   1.920 -0.5362  1.1866  1.5420
  165SOL     MW  660   1.412   2.202   1.962  0.0005 -0.0006 -0.0016
  166SOL     OW  661   0.442   0.007   2.358  0.0321  0.4068  0.1174
  166SOL    HW1  662   0.513  -0.037   2.405 -0.9958 -2.0115 -0.4742
  166SOL    HW2  663   0.481   0.034   2.275  0.6529  0.5292  0.4441
  166SOL     MW  664   0.456   0.005   2.353  0.0005 -0.0006 -0.0016
  167SOL     OW  665   0.899   1.222   2.937 -0.3363 -0.1874  0.7031
  167SOL    HW1  666   0.906   1.127   2.945  2.4995 -0.0908  0.5942
  167SOL    HW2  667   0.878   1.237   2.845 -0.0367 -0.7215  0.5425
  167SOL     MW  668   0.897   1.212   2.926  0.0005 -0.0006 -0.0016
  168SOL     OW  669   0.605   1.036   1.318 -0.5470 -0.3034 -0.2764
  168SOL    HW1  670   0.603   1.014   1.224 -1.4994 -1.5653  0.0181
  168SOL    HW2  671   0.649   0.962   1.359 -0.7580 -0.0770  0.3703
  168SOL     MW  672   0.611   1.024   1.311  0.0005 -0.0006 -0.0016
  169SOL     OW  673   0.599   2.257   2.889  0.4621  0.2124 -0.0616
  169SOL    HW1  674   0.642   2.298   2.814  0.0505  0.4630 -0.1597
  169SOL    HW2  675   0.670   2.241   2.951  0.4999  2.0070  0.4019
  169SOL     MW  676   0.614   2.260   2.887  0.0005 -0.0006 -0.0016
  170SOL     OW  677   1.711   0.983   2.447 -0.1988 -0.2917 -0.5512
  170SOL    HW1  678   1.785   0.927   2.423 -1.2655 -1.3985 -1.3920
  170SOL    HW2  679   1.681   0.950   2.531  1.5750  1.5755  0.9225
  170SOL     MW  680   1.717   0.972   2.455  0.0005 -0.0006 -0.0016
  171SOL     OW  681   2.230   2.417   0.881  0.4468  0.1496 -0.4246
  171SOL    HW1  682   2.263   2.406   0.792  0.6991 -2.2441 -0.1086
  171SOL    HW2  683   2.294   2.372   0.936 -0.4694  0.2805  0.7976
  171SOL     MW  684   2.243   2.410   0.877  0.0005 -0.0006 -0.0016
  172SOL     OW  685   1.153   0.562   3.120 -0.0392 -0.2566 -0.5663
  172SOL    HW1  686   1.125   0.493   3.061 -0.1293 -0.5902 -0.1394
  172SOL    HW2  687   1.153   0.642   3.067 -0.6938 -0.4491 -0.8523
  172SOL     MW  688   1.150   0.564   3.106  0.0005 -0.0006 -0.0016
  173SOL     OW  689   0.397   0.115   2.979  0.5994  0.0923 -0.0710
  173SOL    HW1  690   0.391   0.200   3.024  0.7483 -1.3992  3.0842
  173SOL    HW2  691   0.490   0.092   2.986  0.3791 -0.7732  0.0796
  173SOL     MW  692   0.408   0.123   2.986  0.0005 -0.0006 -0.0016
  174SOL     OW  693   2.558   2.881   2.742  0.0957  0.0479 -0.1018
  174SOL    HW1  694   2.581   2.974   2.739  1.2533 -0.2162 -0.0717
  174SOL    HW2  695   2.489   2.871   2.677  2.2940  0.3294 -2.6674
  174SOL     MW  696   2.552   2.891   2.733  0.0005 -0.0006 -0.0016
  175SOL     OW  697   2.721   1.532   1.142  0.0117 -0.5438 -0.0739
  175SOL    HW1  698   2.789   1.546   1.207  0.1126 -0.8097 -0.1183
  175SOL    HW2  699   2.649   1.492   1.191  0.0510 -0.6553 -0.1056
  175SOL     MW  700   2.720   1.528   1.156  0.0005 -0.0006 -0.0016
  176SOL     OW  701   2.909   2.747   1.383 -0.0491 -0.2595  0.6333
  176SOL    HW1  702   2.916   2.651   1.380  0.3820 -0.2242  0.3706
  176SOL    HW2  703   2.946   2.776   1.300 -0.4549  0.1239  0.5822
  176SOL     MW  704   2.915   2.738   1.372  0.0005 -0.0006 -0.0016
  177SOL     OW  705   0.142   1.626   0.410 -0.2850  0.3726  0.2647
  177SOL    HW1  706   0.184   1.633   0.324  0.9562  0.7386  0.8680
  177SOL    HW2  707   0.170   1.540   0.442 -0.3929  0.4197  0.4805
  177SOL     MW  708   0.151   1.616   0.403  0.0005 -0.0006 -0.0016
  178SOL     OW  709   0.221   0.046   1.005 -0.7973 -0.1282  0.9635
  178SOL    HW1  710   0.238   0.104   1.079 -0.7972  0.9252  0.1619
  178SOL    HW2  711   0.166   0.097   0.947 -1.3120 -1.1682  0.5135
  178SOL     MW  712   0.216   0.060   1.007  0.0005 -0.0006 -0.0016
  179SOL     OW  713   2.058   0.618   0.971 -0.2033 -0.0514  0.1962
  179SOL    HW1  714   2.085   0.694   0.919 -0.4620 -1.3434 -1.9065
  179SOL    HW2  715   2.141   0.578   0.998 -0.0493  1.2926  1.9184
  179SOL     MW  716   2.072   0.623   0.968  0.0005 -0.0006 -0.0016
  180SOL     OW  717   2.855   2.102   1.172  0.2030 -0.1247 -0.0067
  180SOL    HW1  718   2.876   2.055   1.252  1.9297  0.6041  0.0251
  180SOL    HW2  719   2.826   2.188   1.200  0.4666  0.0114 -0.1408
  180SOL     MW  720   2.854   2.107   1.186  0.0005 -0.0006 -0.0016
  181SOL     OW  721   1.253   2.292   2.731 -0.0579  0.3171  0.1595
  181SOL    HW1  722   1.326   2.312   2.673  2.0406 -1.9060  1.8284
  181SOL    HW2  723   1.248   2.367   2.790  0.3123  0.8602 -0.4813
  181SOL     MW  724   1.261   2.304   2.731  0.0005 -0.0006 -0.0016
  182SOL     OW  725   0.210   1.077   1.292  0.1846  0.2283 -0.4916
  182SOL    HW1  726   0.188   1.169   1.307  1.8831  0.5606  0.0924
  182SOL    HW2  727   0.222   1.071   1.197  1.6308  0.9954 -0.3747
  182SOL     MW  728   0.208   1.088   1.281  0.0005 -0.0006 -0.0016
  183SOL     OW  729   1.636   0.044   1.413 -0.5155 -0.2079 -0.4700
  183SOL    HW1  730   1.575  -0.026   1.438 -1.9865  1.0365 -0.4253
  183SOL    HW2  731   1.621   0.112   1.478  0.1665  0.5665 -1.1068
  183SOL     MW  732   1.626   0.043   1.425  0.0005 -0.0006 -0.0016
  184SOL     OW  733   0.342   2.413   1.311  0.5070 -0.5199  0.6235
  184SOL    HW1  734   0.336   2.441   1.220  0.5463  1.2407  1.1290
  184SOL    HW2  735   0.253   2.383   1.332  0.5870 -1.3002 -0.0849
  184SOL     MW  736   0.329   2.413   1.302  0.0005 -0.0006 -0.0016
  185SOL     OW  737   0.498   1.351   0.588 -0.0793  0.1378  0.6096
  185SOL    HW1  738   0.571   1.326   0.645 -1.1520  0.2595  2.1098
  185SOL    HW2  739   0.496   1.283   0.521  1.2708  0.0201  0.6505
  185SOL     MW  740   0.507   1.339   0.587  0.0005 -0.0006 -0.0016
  186SOL     OW  741   2.648   2.424   0.540 -0.3264 -0.4256 -1.1091
  186SOL    HW1  742   2.734   2.404   0.503  0.6883 -0.3450  1.0689
  186SOL    HW2  743   2.607   2.338   0.554  0.2749 -0.5821 -0.2357
  186SOL     MW  744   2.654   2.410   0.537  0.0005 -0.0006 -0.0016
  187SOL     OW  745   0.974   0.284   0.599  0.0773  0.0557  0.2301
  187SOL    HW1  746   0.924   0.306   0.678 -0.8413  1.5912 -0.7240
  187SOL    HW2  747   0.913   0.233   0.546  0.5378 -0.5840  0.3110
  187SOL     MW  748   0.960   0.280   0.602  0.0005 -0.0006 -0.0016
  188SOL     OW  749   1.253   0.816   0.479 -0.6964  0.2306  0.7140
  188SOL    HW1  750   1.284   0.866   0.554  0.7289  1.7285 -0.7955
  188SOL    HW2  751   1.304   0.735   0.481 -1.7557 -0.4565  2.1622
  188SOL     MW  752   1.263   0.812   0.489  0.0005 -0.0006 -0.0016
  189SOL     OW  753   2.687   2.213   0.362  0.3943  0.2070  0.4146
  189SOL    HW1  754   2.696   2.304   0.336 -2.3471  0.4945  0.2649
  189SOL    HW2  755   2.751   2.166   0.308  0.4896  1.7965 -0.9069
  189SOL     MW  756   2.697   2.219   0.352  0.0005 -0.0006 -0.0016
  190SOL     OW  757   2.907   1.470   0.534  0.4427  0.2326  0.0201
  190SOL    HW1  758   2.958   1.551   0.524  0.7422  0.1589  0.8639
  190SOL    HW2  759   2.824   1.498   0.572  0.7996  0.0825  0.9399
  190SOL     MW  760   2.903   1.484   0.537  0.0005 -0.0006 -0.0016
  191SOL     OW  761   0.933   1.989   0.890 -0.1492  0.1594  0.2510
  191SOL    HW1  762   1.002   1.932   0.855 -1.4700 -0.4525 -1.4609
  191SOL    HW2  763   0.961   2.077   0.867  0.3035 -0.0404  0.0137
  191SOL     MW  764   0.946   1.993   0.883  0.0005 -0.0006 -0.0016
  192SOL     OW  765   1.210   0.296   0.745  0.1940 -0.1856  0.6845
  192SOL    HW1  766   1.172   0.344   0.818  0.7867  0.1278  0.7986
  192SOL    HW2  767   1.142   0.295   0.678  0.2639  1.0968  0.5629
  192SOL     MW  768   1.197   0.302   0.746  0.0005 -0.0006 -0.0016
  193SOL     OW  769   1.986   2.195   2.962  0.6115  0.2684  0.2530
  193SOL    HW1  770   1.986   2.124   2.898 -1.4840 -0.8898  1.4508
  193SOL    HW2  771   2.075   2.195   2.998  1.2141 -0.3984 -1.1645
  193SOL     MW  772   1.997   2.186   2.958  0.0005 -0.0006 -0.0016
  194SOL     OW  773   0.413   1.537   1.099  0.8388 -0.2980 -0.2240
  194SOL    HW1  774   0.391   1.630   1.104 -0.0160 -0.5193  0.4673
  194SOL    HW2  775   0.377   1.509   1.015  0.4233 -0.1683 -0.0916
  194SOL     MW  776   0.405   1.545   1.089  0.0005 -0.0006 -0.0016
  195SOL     OW  777   1.976   2.336   0.931 -0.0023 -0.4342 -0.1395
  195SOL    HW1  778   1.934   2.274   0.872 -0.5931 -1.1268  0.9825
  195SOL    HW2  779   2.057   2.361   0.886 -0.8756 -0.2139 -1.6520
  195SOL     MW  780   1.981   2.332   0.918  0.0005 -0.0006 -0.0016
  196SOL     OW  781   2.943   0.400   0.884 -0.3880 -0.1162  0.4149
  196SOL    HW1  782   3.001   0.365   0.952  2.1278  0.1162 -1.4515
  196SOL    HW2  783   2.936   0.329   0.820 -1.8654  0.0357  0.3701
  196SOL     MW  784   2.950   0.386   0.885  0.0005 -0.0006 -0.0016
  197SOL     OW  785   0.137   2.013   1.810  0.0364  0.2410  0.4766
  197SOL    HW1  786   0.171   2.084   1.865 -1.0688  0.5690  0.7515
  197SOL    HW2  787   0.057   1.985   1.853 -0.6678  0.2629 -0.7634
  197SOL     MW  788   0.131   2.019   1.823  0.0005 -0.0006 -0.0016
  198SOL     OW  789   2.469   0.460   1.523  0.4116  0.3692  0.0697
  198SOL    HW1  790   2.494   0.508   1.444  0.7089 -1.1122 -0.7935
  198SOL    HW2  791   2.375   0.448   1.514  0.1875  1.5245  0.7346
  198SOL     MW  792   2.460   0.464   1.511  0.0005 -0.0006 -0.0016
  199SOL     OW  793   0.318   0.230   2.535  0.3064 -0.2774  0.2838
  199SOL    HW1  794   0.314   0.167   2.463  0.6213 -0.4612  0.4240
  199SOL    HW2  795   0.410   0.257   2.537  0.3876 -0.5957  0.8930
  199SOL     MW  796   0.330   0.225   2.526  0.0005 -0.0006 -0.0016
  200SOL     OW  797   0.730   0.064   2.709  0.0653 -0.1986 -0.0387
  200SOL    HW1  798   0.692   0.066   2.797  1.7491  0.5776  0.7076
  200SOL    HW2  799   0.712   0.150   2.673  2.5762  0.8607  1.0250
  200SOL     MW  800   0.723   0.075   2.715  0.0005 -0.0006 -0.0016
  201SOL     OW  801   0.161   2.162   1.211  0.4704  0.0728 -0.2213
  201SOL    HW1  802   0.153   2.107   1.289 -0.1449  0.5497  0.0513
  201SOL    HW2  803   0.255   2.164   1.194  0.4366 -2.1744 -1.0372
  201SOL     MW  804   0.172   2.155   1.219  0.0005 -0.0006 -0.0016
  202SOL     OW  805   0.865   0.435   0.391 -0.4572  0.1691 -1.0789
  202SOL    HW1  806   0.891   0.525   0.371 -0.8751  0.3583 -0.7729
  202SOL    HW2  807   0.895   0.421   0.481 -0.2221 -0.0634 -1.1927
  202SOL     MW  808   0.872   0.445   0.400  0.0005 -0.0006 -0.0016
  203SOL     OW  809   2.453   1.225   0.006  0.4207 -0.4305  0.1217
  203SOL    HW1  810   2.443   1.131   0.020  0.8363 -0.4866  0.0419
  203SOL    HW2  811   2.519   1.252   0.070 -0.5197  0.0146  0.9343
  203SOL     MW  812   2.460   1.216   0.016  0.0005 -0.0006 -0.0016
  204SOL     OW  813   0.244   2.855   2.939 -0.5646  0.0806  0.0813
  204SOL    HW1  814   0.180   2.870   2.869  0.8172  1.3464 -0.9727
  204SOL    HW2  815   0.224   2.922   3.005 -0.4826  0.3165 -0.1330
  204SOL     MW  816   0.233   2.865   2.939  0.0005 -0.0006 -0.0016
  205SOL     OW  817   1.472   2.736   2.080  0.5302 -0.4329  0.6184
  205SOL    HW1  818   1.545   2.681   2.107  1.3119  0.5627  0.6106
  205SOL    HW2  819   1.512   2.821   2.061 -0.4407 -0.2135 -0.6165
  205SOL     MW  820   1.486   2.740   2.081  0.0005 -0.0006 -0.0016
  206SOL     OW  821   2.615   2.425   1.645  0.4572  0.0787  0.5056
  206SOL    HW1  822   2.597   2.357   1.710  0.2057 -0.6334 -0.3014
  206SOL    HW2  823   2.605   2.507   1.694  0.8452 -0.4568  1.5038
  206SOL     MW  824   2.611   2.427   1.660  0.0005 -0.0006 -0.0016
  207SOL     OW  825   0.666   2.474   2.077  0.5195 -0.1896  0.3491
  207SOL    HW1  826   0.706   2.418   2.010 -2.0297  0.4408 -1.8558
  207SOL    HW2  827   0.684   2.563   2.047  0.9876  0.1507  1.5967
  207SOL     MW  828   0.674   2.478   2.065  0.0005 -0.0006 -0.0016
  208SOL     OW  829   2.520   1.037   2.277  0.1990  0.2229 -0.4707
  208SOL    HW1  830   2.512   1.120   2.231 -0.3410  1.7062  2.1189
  208SOL    HW2  831   2.602   0.999   2.244  0.9643  2.2431 -1.0247
  208SOL     MW  832   2.530   1.043   2.267  0.0005 -0.0006 -0.0016
  209SOL     OW  833   0.506   2.011   2.801 -0.3326 -0.6872 -0.3902
  209SOL    HW1  834   0.512   2.099   2.837 -1.7521 -0.7832  0.1292
  209SOL    HW2  835   0.435   1.969   2.850  1.3449 -2.6636  0.5016
  209SOL     MW  836   0.498   2.017   2.812  0.0005 -0.0006 -0.0016
  210SOL     OW  837   2.540   2.259   2.953 -0.2949 -0.4301 -0.1587
  210SOL    HW1  838   2.486   2.305   3.017  0.0620 -0.9476  0.5354
  210SOL    HW2  839   2.620   2.237   3.001  0.2819 -0.2022 -0.9950
  210SOL     MW  840   2.543   2.262   2.968  0.0005 -0.0006 -0.0016
  211SOL     OW  841   1.419   1.795   0.748 -0.1124  0.0126  0.1929
  211SOL    HW1  842   1.422   1.880   0.703 -0.0643  0.0763  0.3162
  211SOL    HW2  843   1.438   1.731   0.680  0.1090  0.1189  0.1535
  211SOL     MW  844   1.421   1.798   0.733  0.0005 -0.0006 -0.0016
  212SOL     OW  845   0.276   1.259   2.603 -0.2232  0.3277  0.1731
  212SOL    HW1  846   0.182   1.245   2.615 -0.1931  0.1980  0.2604
  212SOL    HW2  847   0.314   1.245   2.690  0.2103 -2.3950 -0.3526
  212SOL     MW  848   0.269   1.255   2.616  0.0005 -0.0006 -0.0016
  213SOL     OW  849   2.271   1.320   1.820  0.0815  0.2183 -0.5511
  213SOL    HW1  850   2.340   1.384   1.839 -0.0066  0.2522 -0.3403
  213SOL    HW2  851   2.202   1.340   1.883 -1.1437  1.7099 -2.2686
  213SOL     MW  852   2.271   1.331   1.830  0.0005 -0.0006 -0.0016
  214SOL     OW  853   0.377   1.768   1.431 -0.4751  0.6402 -0.3071
  214SOL    HW1  854   0.381   1.853   1.475  0.0021  0.9289 -0.8888
  214SOL    HW2  855   0.443   1.715   1.476 -1.6040  0.1791  0.8504
  214SOL     MW  856   0.386   1.772   1.442  0.0005 -0.0006 -0.0016
  215SOL     OW  857   0.440   0.244   0.854 -0.4688  0.0748  0.0709
  215SOL    HW1  858   0.426   0.238   0.759 -0.2158  1.0363 -0.0366
  215SOL    HW2  859   0.483   0.328   0.867  2.6340 -1.4732  0.7042
  215SOL     MW  860   0.444   0.254   0.843  0.0005 -0.0006 -0.0016
  216SOL     OW  861   0.196   2.889   1.292 -0.0524 -0.1087 -0.1917
  216SOL    HW1  862   0.134   2.875   1.364 -1.7604  2.2517 -1.0667
  216SOL    HW2  863   0.168   2.828   1.224 -1.8180  1.2540 -0.7553
  216SOL     MW  864   0.185   2.879   1.293  0.0005 -0.0006 -0.0016
  217SOL     OW  865   3.104   1.472   1.983  0.3241 -0.5894  0.2393
  217SOL    HW1  866   3.053   1.396   1.954  0.2680 -0.3472 -0.3004
  217SOL    HW2  867   3.194   1.452   1.957 -0.0810  0.7931 -2.6139
  217SOL     MW  868   3.109   1.460   1.976  0.0005 -0.0006 -0.0016
  218SOL     OW  869   0.105   1.304   0.196  0.5388  0.1553  0.1307
  218SOL    HW1  870   0.085   1.265   0.111 -0.5290 -0.1689  0.5220
  218SOL    HW2  871   0.153   1.384   0.174  0.8988 -0.2778 -0.7437
  218SOL     MW  872   0.109   1.309   0.182  0.0005 -0.0006 -0.0016
  219SOL     OW  873   0.583   0.449   0.650 -0.2247 -0.2361 -0.3845
  219SOL    HW1  874   0.522   0.484   0.714 -1.4865 -2.5730 -0.2073
  219SOL    HW2  875   0.530   0.394   0.593  1.3260 -0.4041 -1.7489
  219SOL     MW  876   0.569   0.446   0.651  0.0005 -0.0006 -0.0016
  220SOL     OW  877   2.660   1.380   2.266  0.0555  1.0936 -0.0556
  220SOL    HW1  878   2.641   1.350   2.355 -0.8659 -0.1331 -0.6356
  220SOL    HW2  879   2.624   1.469   2.264 -0.1908  1.0269  0.7094
  220SOL     MW  880   2.653   1.387   2.277  0.0005 -0.0006 -0.0016
  221SOL     OW  881   0.460   2.968   1.277 -0.0661 -0.5004 -0.1617
  221SOL    HW1  882   0.372   2.933   1.263  0.2653 -0.5872 -2.4614
  221SOL    HW2  883   0.518   2.895   1.255  0.6015 -0.3270  0.9702
  221SOL     MW  884   0.456   2.954   1.273  0.0005 -0.0006 -0.0016
  222SOL     OW  885   1.421   2.153   0.720 -0.5397  0.1615  0.5227
  222SOL    HW1  886   1.445   2.128   0.809  0.0601  0.6912  0.5150
  222SOL    HW2  887   1.504   2.154   0.672 -0.9857 -1.2539 -0.3455
  222SOL     MW  888   1.434   2.150   0.725  0.0005 -0.0006 -0.0016
  223SOL     OW  889   0.435   1.282   2.841 -0.1283 -0.2385 -0.0058
  223SOL    HW1  890   0.498   1.212   2.857 -1.7560 -1.6924  0.3671
  223SOL    HW2  891   0.475   1.360   2.881  3.2075 -0.0844 -3.1625
  223SOL     MW  892   0.448   1.283   2.849  0.0005 -0.0006 -0.0016
  224SOL     OW  893   1.373   1.779   2.961 -0.4949  0.4124 -0.5080
  224SOL    HW1  894   1.369   1.874   2.959 -1.2643  0.3807 -0.6906
  224SOL    HW2  895   1.346   1.752   2.873 -0.9406  0.0096 -0.2528
  224SOL     MW  896   1.369   1.787   2.949  0.0005 -0.0006 -0.0016
  225SOL     OW  897   1.739   0.776   0.967 -0.1978  0.4104  0.4084
  225SOL    HW1  898   1.680   0.811   1.033 -1.0307 -0.6578  0.2650
  225SOL    HW2  899   1.735   0.681   0.979 -0.7810  0.1510 -1.5104
  225SOL     MW  900   1.731   0.768   0.977  0.0005 -0.0006 -0.0016
  226SOL     OW  901   0.301   0.617   0.836  0.3384 -0.0372  0.2003
  226SOL    HW1  902   0.318   0.637   0.744  0.6264  1.4704  0.5639
  226SOL    HW2  903   0.238   0.684   0.864 -0.0616 -0.7321  0.9969
  226SOL     MW  904   0.295   0.628   0.827  0.0005 -0.0006 -0.0016
  227SOL     OW  905   2.485   2.585   0.226  0.4642 -0.2391 -0.0424
  227SOL    HW1  906   2.512   2.615   0.312  0.8806 -0.8705  0.0532
  227SOL    HW2  907   2.423   2.652   0.195 -1.3329 -1.0470  1.6227
  227SOL     MW  908   2.480   2.597   0.233  0.0005 -0.0006 -0.0016
  228SOL     OW  909   1.020   0.900   2.025 -0.0087  0.1820  0.3817
  228SOL    HW1  910   1.089   0.847   2.066  0.6456 -0.4428 -1.4551
  228SOL    HW2  911   1.045   0.990   2.045  1.2076 -0.0417 -0.0267
  228SOL     MW  912   1.032   0.905   2.033  0.0005 -0.0006 -0.0016
  229SOL     OW  913   1.730   0.504   0.962  0.3069  0.3916  0.4705
  229SOL    HW1  914   1.759   0.442   0.896  1.7930  1.9720 -0.4327
  229SOL    HW2  915   1.636   0.517   0.945  0.4932  0.1379 -0.7762
  229SOL     MW  916   1.721   0.498   0.952  0.0005 -0.0006 -0.0016
  230SOL     OW  917   0.687   0.889   0.050  0.6625  0.0485 -0.5311
  230SOL    HW1  918   0.733   0.929   0.124  0.0587  1.0403 -0.6811
  230SOL    HW2  919   0.610   0.847   0.090  0.0205  1.0840 -0.6490
  230SOL     MW  920   0.683   0.889   0.065  0.0005 -0.0006 -0.0016
  231SOL     OW  921   2.401   0.961   0.022  0.3137  0.6140 -0.1668
  231SOL    HW1  922   2.347   0.895  -0.021  0.0598 -0.1015  1.2259
  231SOL    HW2  923   2.371   0.963   0.113 -0.4005  3.3899 -0.3602
  231SOL     MW  924   2.390   0.953   0.028  0.0005 -0.0006 -0.0016
  232SOL     OW  925   0.431   2.668   1.450  0.2752 -0.3068 -0.4858
  232SOL    HW1  926   0.346   2.710   1.435  1.5391  2.8100  0.3249
  232SOL    HW2  927   0.421   2.580   1.412 -3.0358  0.1700 -1.0449
  232SOL     MW  928   0.418   2.662   1.443  0.0005 -0.0006 -0.0016
  233SOL     OW  929   1.158   0.204   0.090 -0.3046 -0.1370 -0.6866
  233SOL    HW1  930   1.227   0.258   0.050  0.0345 -0.6081 -0.7415
  233SOL    HW2  931   1.185   0.197   0.182 -1.4994  1.6221 -0.1466
  233SOL     MW  932   1.170   0.210   0.097  0.0005 -0.0006 -0.0016
  234SOL     OW  933   2.457   0.289   0.858  0.5138  0.0649  0.3651
  234SOL    HW1  934   2.506   0.207   0.853  1.1880  0.5098 -0.6219
  234SOL    HW2  935   2.521   0.353   0.891  0.0325  0.2281  0.9980
  234SOL     MW  936   2.471   0.287   0.862  0.0005 -0.0006 -0.0016
  235SOL     OW  937   1.925   0.220   2.007  0.3224 -0.1305 -0.3360
  235SOL    HW1  938   1.907   0.184   1.920  1.4163 -1.8469  0.1122
  235SOL    HW2  939   1.952   0.145   2.059 -0.0350  0.9138  1.4377
  235SOL     MW  940   1.926   0.206   2.002  0.0005 -0.0006 -0.0016
  236SOL     OW  941   1.551   0.457   1.338 -0.4753  0.0540  0.0737
  236SOL    HW1  942   1.578   0.548   1.329  0.3589 -0.2353 -0.3849
  236SOL    HW2  943   1.483   0.445   1.272 -1.9532  0.8329  1.3577
  236SOL     MW  944   1.545   0.467   1.329  0.0005 -0.0006 -0.0016
  237SOL     OW  945   0.403   1.475   1.365 -0.0255  0.0125  0.0585
  237SOL    HW1  946   0.409   1.497   1.272 -1.2578  0.7832  0.1430
  237SOL    HW2  947   0.494   1.461   1.392  0.3701  0.0327 -1.1955
  237SOL     MW  948   0.416   1.476   1.357  0.0005 -0.0006 -0.0016
  238SOL     OW  949   2.100   1.719   2.312  0.1205 -0.2833  0.0377
  238SOL    HW1  950   2.190   1.753   2.313  1.0276 -2.0340 -3.7302
  238SOL    HW2  951   2.065   1.748   2.228 -3.0095  0.4637  1.4683
  238SOL     MW  952   2.107   1.727   2.301  0.0005 -0.0006 -0.0016
  239SOL     OW  953   1.946   0.473   0.436 -0.4400  0.1323  0.2115
  239SOL    HW1  954   2.035   0.463   0.401 -0.7955  0.9235 -0.9658
  239SOL    HW2  955   1.959   0.514   0.522  0.2429  3.7589 -1.4418
  239SOL     MW  956   1.959   0.477   0.443  0.0005 -0.0006 -0.0016
  240SOL     OW  957   0.223   1.133   2.344  0.1972  0.2443 -0.3666
  240SOL    HW1  958   0.265   1.186   2.275 -0.9695  1.9395  0.1588
  240SOL    HW2  959   0.269   1.158   2.424  0.8382 -0.9304 -0.3463
  240SOL     MW  960   0.234   1.143   2.345  0.0005 -0.0006 -0.0016
  241SOL     OW  961   2.913   2.465   3.106 -0.3674  0.0563  0.6347
  241SOL    HW1  962   2.893   2.542   3.053  0.8531  1.6202  2.3590
  241SOL    HW2  963   3.008   2.457   3.102 -0.4946 -1.8262 -0.0524
  241SOL     MW  964   2.922   2.474   3.098  0.0005 -0.0006 -0.0016
  242SOL     OW  965   2.587   3.086   2.483  0.0920  0.4343  0.1606
  242SOL    HW1  966   2.578   3.160   2.542 -1.3555  0.8360 -0.5224
  242SOL    HW2  967   2.498   3.052   2.473  0.9893 -3.6290  3.2085
  242SOL     MW  968   2.575   3.091   2.490  0.0005 -0.0006 -0.0016
  243SOL     OW  969   3.000   1.138   0.014  0.0668  0.2943  0.3030
  243SOL    HW1  970   2.958   1.209   0.061 -3.2701 -1.5773  0.4507
  243SOL    HW2  971   2.979   1.153  -0.078 -2.0830 -1.1872  0.4664
  243SOL     MW  972   2.992   1.149   0.008  0.0005 -0.0006 -0.0016
  244SOL     OW  973   2.458   1.397   2.924  0.3022  0.2689  0.2782
  244SOL    HW1  974   2.441   1.362   2.837  2.5660 -0.0297 -0.0995
  244SOL    HW2  975   2.460   1.320   2.981 -3.8122  0.6275  1.2201
  244SOL     MW  976   2.456   1.383   2.920  0.0005 -0.0006 -0.0016
  245SOL     OW  977   0.163   2.186   2.850 -0.1587 -0.8075  0.0858
  245SOL    HW1  978   0.212   2.127   2.907  1.4027  2.3397  2.3244
  245SOL    HW2  979   0.227   2.214   2.784 -0.9628 -1.7504 -1.1343
  245SOL     MW  980   0.178   2.182   2.849  0.0005 -0.0006 -0.0016
  246SOL     OW  981   1.515   2.051   2.966  0.1075 -0.2874 -0.2942
  246SOL    HW1  982   1.566   2.028   2.888 -0.7963  0.0849 -1.0177
  246SOL    HW2  983   1.446   2.108   2.933 -2.7320 -3.2174  0.0558
  246SOL     MW  984   1.513   2.055   2.951  0.0005 -0.0006 -0.0016
  247SOL     OW  985   1.640   2.642   2.467  0.0203 -0.0265 -0.1737
  247SOL    HW1  986   1.642   2.608   2.377  2.9897 -0.6228  0.0204
  247SOL    HW2  987   1.639   2.737   2.457  0.8528 -0.0808 -0.8640
  247SOL     MW  988   1.640   2.650   2.454  0.0005 -0.0006 -0.0016
  248SOL     OW  989   1.975   1.350   0.660  0.1687  0.1296 -0.4328
  248SOL    HW1  990   1.938   1.263   0.642 -0.3087  0.0925  0.6425
  248SOL    HW2  991   2.005   1.381   0.575 -0.4157 -0.7404 -0.9786
  248SOL     MW  992   1.974   1.343   0.647  0.0005 -0.0006 -0.0016
  249SOL     OW  993   3.129   1.347   0.621  0.0294 -0.0147 -0.0270
  249SOL    HW1  994   3.143   1.301   0.539 -2.1442 -1.6915  0.4482
  249SOL    HW2  995   3.036   1.367   0.622  0.5172  2.5787  0.7769
  249SOL     MW  996   3.119   1.344   0.611  0.0005 -0.0006 -0.0016
  250SOL     OW  997   1.966   2.297   1.940  0.7591 -0.4670  0.4548
  250SOL    HW1  998   2.042   2.238   1.939  2.0495  1.1138  0.4980
  250SOL    HW2  999   1.986   2.362   1.873 -0.9099 -0.3905 -0.0074
  250SOL     MW 1000   1.978   2.297   1.931  0.0005 -0.0006 -0.0016
  251SOL     OW 1001   0.859   2.586   2.423  0.2242 -0.4118  0.1716
  251SOL    HW1 1002   0.902   2.558   2.343  1.3137 -1.7875  1.1878
  251SOL    HW2 1003   0.769   2.555   2.413  0.7927 -2.1759  0.1994
  251SOL     MW 1004   0.853   2.579   2.412  0.0005 -0.0006 -0.0016
  252SOL     OW 1005   1.355   1.642   2.408  0.6046 -0.2283 -0.7741
  252SOL    HW1 1006   1.329   1.734   2.402 -0.3261 -0.4697 -0.6205
  252SOL    HW2 1007   1.407   1.637   2.488 -0.9849 -0.1888  0.3087
  252SOL     MW 1008   1.358   1.653   2.417  0.0005 -0.0006 -0.0016
  253SOL     OW 1009   2.846   1.587   1.421  0.0565 -0.2144  0.1202
  253SOL    HW1 1010   2.916   1.522   1.412  0.2570 -0.2440  1.6609
  253SOL    HW2 1011   2.882   1.666   1.381 -0.2777 -1.0584 -2.0021
  253SOL     MW 1012   2.860   1.589   1.415  0.0005 -0.0006 -0.0016
  254SOL     OW 1013   1.162   0.318   0.376 -0.2760 -0.0645  0.6513
  254SOL    HW1 1014   1.073   0.340   0.402  0.0214  0.1974  1.4758
  254SOL    HW2 1015   1.167   0.222   0.385 -0.9837 -0.3019 -1.0782
  254SOL     MW 1016   1.151   0.308   0.380  0.0005 -0.0006 -0.0016
  255SOL     OW 1017   2.271   2.761   0.164 -0.1180 -0.2866  0.1257
  255SOL    HW1 1018   2.180   2.768   0.194 -0.5719  2.0248 -1.5672
  255SOL    HW2 1019   2.266   2.716   0.080  0.5703 -1.8788  0.8887
  255SOL     MW 1020   2.259   2.756   0.157  0.0005 -0.0006 -0.0016
  256SOL     OW 1021   0.571   2.425   0.913  0.9923  0.1950 -0.2979
  256SOL    HW1 1022   0.594   2.472   0.833  0.4781  0.6479 -0.1838
  256SOL    HW2 1023   0.515   2.486   0.962  0.0701 -0.6405 -0.2814
  256SOL     MW 1024   0.567   2.439   0.909  0.0005 -0.0006 -0.0016
  257SOL     OW 1025   0.639   2.126   2.440  0.4632 -0.2618  0.3516
  257SOL    HW1 1026   0.562   2.080   2.475  1.6372 -0.1327  3.3950
  257SOL    HW2 1027   0.628   2.216   2.469  0.7936  0.2429 -1.0169
  257SOL     MW 1028   0.628   2.131   2.448  0.0005 -0.0006 -0.0016
  258SOL     OW 1029   0.914   1.714   1.895  0.4428 -0.6060  0.2555
  258SOL    HW1 1030   0.991   1.741   1.844 -0.5219  1.2815 -0.3015
  258SOL    HW2 1031   0.848   1.781   1.877 -0.3932 -0.5552  2.9880
  258SOL     MW 1032   0.915   1.726   1.886  0.0005 -0.0006 -0.0016
  259SOL     OW 1033   2.290   1.786   1.905 -0.1243  0.0982  0.0057
  259SOL    HW1 1034   2.216   1.836   1.870 -0.2174 -0.3271 -0.4052
  259SOL    HW2 1035   2.361   1.850   1.910 -0.5703  0.5592  0.6023
  259SOL     MW 1036   2.290   1.801   1.901  0.0005 -0.0006 -0.0016
  260SOL     OW 1037   2.361   0.841   1.621 -0.5542  0.6080  0.3202
  260SOL    HW1 1038   2.361   0.914   1.683  0.2717 -0.2196  1.3238
  260SOL    HW2 1039   2.441   0.854   1.569 -0.0097  0.0204  0.9978
  260SOL     MW 1040   2.372   0.852   1.622  0.0005 -0.0006 -0.0016
  261SOL     OW 1041   0.138   1.862   2.886 -0.3851  0.1467  0.4976
  261SOL    HW1 1042   0.164   1.790   2.829 -0.5733  0.8202 -0.4728
  261SOL    HW2 1043   0.077   1.823   2.948 -0.1194 -0.6279  0.2814
  261SOL     MW 1044   0.133   1.848   2.886  0.0005 -0.0006 -0.0016
  262SOL     OW 1045   0.808   2.435   0.007  0.2408  0.3425 -0.1735
  262SOL    HW1 1046   0.795   2.341  -0.004  1.6906  0.1503 -0.3777
  262SOL    HW2 1047   0.722   2.468   0.034 -0.1870 -1.0891  0.2875
  262SOL     MW 1048   0.795   2.427   0.009  0.0005 -0.0006 -0.0016
  263SOL     OW 1049   0.150   1.329   1.314 -0.3587  0.3927 -0.4245
  263SOL    HW1 1050   0.227   1.384   1.331 -1.5822  1.8214  0.8483
  263SOL    HW2 1051   0.096   1.382   1.255 -0.6832 -0.2728 -0.7279
  263SOL     MW 1052   0.153   1.343   1.309  0.0005 -0.0006 -0.0016
  264SOL     OW 1053   2.808   2.620   2.195  0.5738 -0.5358 -0.0089
  264SOL    HW1 1054   2.850   2.567   2.263  0.7295 -0.5745 -0.1340
  264SOL    HW2 1055   2.808   2.563   2.117 -0.5314 -0.8836  0.2216
  264SOL     MW 1056   2.813   2.606   2.194  0.0005 -0.0006 -0.0016
  265SOL     OW 1057   0.054   0.337   0.659  0.4194  0.3567 -0.2377
  265SOL    HW1 1058   0.001   0.292   0.593 -0.8710 -0.5639  1.3456
  265SOL    HW2 1059   0.066   0.425   0.624  0.0350 -0.1830 -1.8210
  265SOL     MW 1060   0.049   0.342   0.646  0.0005 -0.0006 -0.0016
  266SOL     OW 1061   0.392   2.050   1.526  0.6688  0.4045  0.2096
  266SOL    HW1 1062   0.392   2.104   1.605 -0.7135  2.4043 -1.0764
  266SOL    HW2 1063   0.299   2.043   1.502  0.7736 -2.4852  0.2007
  266SOL     MW 1064   0.380   2.056   1.533  0.0005 -0.0006 -0.0016
  267SOL     OW 1065   0.027   1.463   1.124 -0.0629 -0.2163  0.7348
  267SOL    HW1 1066  -0.039   1.532   1.118 -1.0095 -1.1936 -0.5936
  267SOL    HW2 1067   0.061   1.454   1.035  2.3676  0.6661  1.4742
  267SOL     MW 1068   0.023   1.471   1.112  0.0005 -0.0006 -0.0016
  268SOL     OW 1069   1.750   2.891   2.780  0.3692 -0.2121 -0.1405
  268SOL    HW1 1070   1.664   2.850   2.785 -0.5118  1.4521 -1.0642
  268SOL    HW2 1071   1.769   2.919   2.870 -1.0015  1.2340 -0.2656
  268SOL     MW 1072   1.741   2.889   2.792  0.0005 -0.0006 -0.0016
  269SOL     OW 1073   0.327   0.047   2.724 -0.3712 -0.0638  0.3830
  269SOL    HW1 1074   0.357   0.087   2.806 -0.6393  0.6376  0.1516
  269SOL    HW2 1075   0.339   0.115   2.658 -3.1080  0.5791  0.4049
  269SOL     MW 1076   0.332   0.061   2.726  0.0005 -0.0006 -0.0016
  270SOL     OW 1077   2.916   1.663   1.990  0.5200  0.1149 -0.1181
  270SOL    HW1 1078   2.983   1.597   1.976  1.0866 -0.0419  2.7346
  270SOL    HW2 1079   2.965   1.746   1.993 -0.1151  0.7036 -3.0891
  270SOL     MW 1080   2.931   1.665   1.989  0.0005 -0.0006 -0.0016
  271SOL     OW 1081   2.672   1.216   2.503  0.0470 -0.0221  0.5095
  271SOL    HW1 1082   2.613   1.256   2.567  0.6167 -0.4359  1.3138
  271SOL    HW2 1083   2.616   1.156   2.453 -0.8877  1.9590 -0.9382
  271SOL     MW 1084   2.657   1.213   2.505  0.0005 -0.0006 -0.0016
  272SOL     OW 1085   1.604   2.017   1.880  0.0358 -0.5635 -0.2483
  272SOL    HW1 1086   1.537   2.073   1.919 -0.0157  0.5112 -1.8328
  272SOL    HW2 1087   1.678   2.075   1.863  1.8219 -1.8879  2.3036
  272SOL     MW 1088   1.605   2.031   1.883  0.0005 -0.0006 -0.0016
  273SOL     OW 1089   0.221   0.562   1.554 -0.3646 -0.4163 -0.2180
  273SOL    HW1 1090   0.248   0.634   1.497 -2.0521  0.2415 -0.2458
  273SOL    HW2 1091   0.283   0.491   1.535  0.2049  0.4045 -1.5269
  273SOL     MW 1092   0.232   0.562   1.545  0.0005 -0.0006 -0.0016
  274SOL     OW 1093   0.994   2.255   0.878  0.1027 -0.1071 -0.2510
  274SOL    HW1 1094   0.927   2.283   0.941 -1.1323 -1.9685 -0.6563
  274SOL    HW2 1095   1.076   2.268   0.925 -0.5809  1.3273  0.6352
  274SOL     MW 1096   0.996   2.260   0.892  0.0005 -0.0006 -0.0016
  275SOL     OW 1097   2.966   2.462   2.367  0.0465 -0.3728 -0.1518
  275SOL    HW1 1098   3.041   2.419   2.407  0.5595  0.0936 -0.5987
  275SOL    HW2 1099   2.890   2.428   2.415  0.6827  0.6830  1.7044
  275SOL     MW 1100   2.966   2.452   2.379  0.0005 -0.0006 -0.0016
  276SOL     OW 1101   2.258   1.812   1.526  0.1404  0.2676  0.0572
  276SOL    HW1 1102   2.348   1.788   1.544 -0.0307 -0.9411 -0.6377
  276SOL    HW2 1103   2.223   1.741   1.473 -1.4131  0.3981  0.8259
  276SOL     MW 1104   2.265   1.800   1.521  0.0005 -0.0006 -0.0016
  277SOL     OW 1105   2.181   2.722   0.589 -0.5546 -0.1761  0.1741
  277SOL    HW1 1106   2.270   2.744   0.617 -0.6273 -1.4230  1.4497
  277SOL    HW2 1107   2.124   2.764   0.653 -0.8604  0.0198 -0.2237
  277SOL     MW 1108   2.185   2.730   0.601  0.0005 -0.0006 -0.0016
  278SOL     OW 1109   2.491   0.667   1.819  0.1121 -0.5679 -0.1678
  278SOL    HW1 1110   2.571   0.624   1.790 -0.2220 -1.3244 -0.0042
  278SOL    HW2 1111   2.446   0.692   1.738  1.4959  1.8179 -0.2858
  278SOL     MW 1112   2.495   0.665   1.805  0.0005 -0.0006 -0.0016
  279SOL     OW 1113   1.471   0.956   0.053 -0.6656 -0.2444 -0.3740
  279SOL    HW1 1114   1.441   0.998  -0.028  0.7429  0.1790 -0.6913
  279SOL    HW2 1115   1.560   0.989   0.066  0.4306 -2.9157 -0.5236
  279SOL     MW 1116   1.478   0.966   0.044  0.0005 -0.0006 -0.0016
  280SOL     OW 1117   0.380   0.699   0.572 -0.5150 -0.6594 -0.6429
  280SOL    HW1 1118   0.423   0.759   0.511 -1.6975 -1.7419 -2.6419
  280SOL    HW2 1119   0.397   0.612   0.536 -2.7103 -1.2275 -0.4421
  280SOL     MW 1120   0.388   0.695   0.560  0.0005 -0.0006 -0.0016
  281SOL     OW 1121   2.309   1.842   0.212  0.0660 -0.8730 -0.0340
  281SOL    HW1 1122   2.308   1.827   0.118  0.8003 -0.5495 -0.1028
  281SOL    HW2 1123   2.295   1.937   0.221 -0.4440 -0.9710  0.1987
  281SOL     MW 1124   2.307   1.852   0.201  0.0005 -0.0006 -0.0016
  282SOL     OW 1125   2.839   2.322   1.573 -0.1182 -0.1286 -0.5184
  282SOL    HW1 1126   2.867   2.368   1.494  1.2899  0.6064  0.3670
  282SOL    HW2 1127   2.766   2.374   1.606 -1.5858 -1.1579 -1.9801
  282SOL     MW 1128   2.833   2.334   1.567  0.0005 -0.0006 -0.0016
  283SOL     OW 1129   1.915   2.683   3.027  0.1197 -0.0801  0.2371
  283SOL    HW1 1130   2.009   2.701   3.034  0.3614 -0.4720 -1.4428
  283SOL    HW2 1131   1.877   2.768   3.003  0.3631 -0.3119 -1.1022
  283SOL     MW 1132   1.922   2.696   3.025  0.0005 -0.0006 -0.0016
  284SOL     OW 1133   0.308   0.771   1.378 -0.1558 -0.0475 -0.0908
  284SOL    HW1 1134   0.312   0.854   1.425  1.4406 -0.5448  0.7417
  284SOL    HW2 1135   0.380   0.775   1.315  0.3517 -1.0040  0.3915
  284SOL     MW 1136   0.318   0.782   1.376  0.0005 -0.0006 -0.0016
  285SOL     OW 1137   1.957   0.132   1.355 -0.5509  0.1570 -0.6921
  285SOL    HW1 1138   1.912   0.055   1.321  0.6651  0.0246 -2.0605
  285SOL    HW2 1139   1.887   0.198   1.362 -1.4825 -0.8503 -0.0874
  285SOL     MW 1140   1.942   0.131   1.351  0.0005 -0.0006 -0.0016
  286SOL     OW 1141   0.697   2.440   1.501 -0.2457  0.4905  0.0920
  286SOL    HW1 1142   0.663   2.379   1.436  0.3991 -0.2523  0.4365
  286SOL    HW2 1143   0.748   2.503   1.450  1.1709 -0.7207 -0.0502
  286SOL     MW 1144   0.699   2.440   1.486  0.0005 -0.0006 -0.0016
  287SOL     OW 1145   0.133   0.780   1.018  0.6928 -0.0221  0.1558
  287SOL    HW1 1146   0.052   0.742   0.984  0.6425  0.8633 -0.7698
  287SOL    HW2 1147   0.126   0.773   1.113  0.0699 -1.0312  0.0376
  287SOL     MW 1148   0.122   0.775   1.026  0.0005 -0.0006 -0.0016
  288SOL     OW 1149   1.396   0.779   2.930 -0.2649  0.1185  0.0350
  288SOL    HW1 1150   1.411   0.796   2.837  0.4889  3.8865  0.7168
  288SOL    HW2 1151   1.473   0.814   2.974 -1.0539 -0.6584  2.1852
  288SOL     MW 1152   1.408   0.785   2.923  0.0005 -0.0006 -0.0016
  289SOL     OW 1153   2.869   2.056   0.209 -0.0720 -0.0159 -0.1953
  289SOL    HW1 1154   2.847   1.982   0.265  0.9922 -0.1339  0.0898
  289SOL    HW2 1155   2.899   2.017   0.127 -0.8525  0.1425 -0.5706
  289SOL     MW 1156   2.870   2.042   0.205  0.0005 -0.0006 -0.0016
  290SOL     OW 1157   0.587   2.643   2.929  0.2203  0.2202  0.5056
  290SOL    HW1 1158   0.649   2.575   2.904  0.0215 -0.5268  1.9225
  290SOL    HW2 1159   0.502   2.608   2.905  0.1088 -0.0949  1.3317
  290SOL     MW 1160   0.584   2.630   2.923  0.0005 -0.0006 -0.0016
  291SOL     OW 1161   1.168   2.990   1.805 -0.2898  0.2967  0.3082
  291SOL    HW1 1162   1.183   3.040   1.725 -0.0602  1.4232  1.0409
  291SOL    HW2 1163   1.220   2.910   1.793  0.9285  1.1103 -0.0645
  291SOL     MW 1164   1.177   2.986   1.793  0.0005 -0.0006 -0.0016
  292SOL     OW 1165   0.100   1.927   2.327  0.1878 -0.6983 -0.6758
  292SOL    HW1 1166   0.021   1.982   2.318  1.0709  0.3578 -2.7717
  292SOL    HW2 1167   0.101   1.902   2.419 -2.1132 -0.0089 -0.3851
  292SOL     MW 1168   0.090   1.931   2.337  0.0005 -0.0006 -0.0016
  293SOL     OW 1169   2.242   2.115   0.219  0.2462 -0.3518  0.2191
  293SOL    HW1 1170   2.288   2.198   0.236 -1.9549  1.4249 -1.7873
  293SOL    HW2 1171   2.177   2.109   0.289  2.0758 -1.8772  1.9232
  293SOL     MW 1172   2.239   2.125   0.230  0.0005 -0.0006 -0.0016
  294SOL     OW 1173   2.406   2.197   2.069 -0.0848 -0.0063 -0.0730
  294SOL    HW1 1174   2.416   2.236   2.155  1.6909  0.3978 -0.4217
  294SOL    HW2 1175   2.393   2.271   2.009  0.8474 -0.1072 -0.4173
  294SOL     MW 1176   2.406   2.211   2.072  0.0005 -0.0006 -0.0016
  295SOL     OW 1177   0.705   0.682   2.015 -0.0783 -0.4629  0.0523
  295SOL    HW1 1178   0.659   0.720   2.090 -1.6161 -1.0977 -0.5253
  295SOL    HW2 1179   0.742   0.757   1.969  1.5513 -0.1072  1.8220
  295SOL     MW 1180   0.704   0.696   2.019  0.0005 -0.0006 -0.0016
  296SOL     OW 1181   1.260   2.228   1.110  0.2047 -0.0889 -0.7131
  296SOL    HW1 1182   1.339   2.192   1.071  0.6192  2.3051 -2.3769
  296SOL    HW2 1183   1.271   2.323   1.101 -2.4033  0.3493 -0.0758
  296SOL     MW 1184   1.271   2.236   1.104  0.0005 -0.0006 -0.0016
  297SOL     OW 1185   2.265   2.004   1.038  0.3386  0.0825  0.1992
  297SOL    HW1 1186   2.247   2.098   1.042 -0.4698  0.0213 -1.3801
  297SOL    HW2 1187   2.221   1.975   0.958  0.7926 -1.5967  0.5396
  297SOL     MW 1188   2.257   2.013   1.028  0.0005 -0.0006 -0.0016
  298SOL     OW 1189   0.633   0.762   0.812 -0.2539 -0.6869 -0.0511
  298SOL    HW1 1190   0.562   0.699   0.798  1.3549 -2.6070 -0.1421
  298SOL    HW2 1191   0.608   0.809   0.891 -1.1935 -2.0131  0.4883
  298SOL     MW 1192   0.621   0.760   0.821  0.0005 -0.0006 -0.0016
  299SOL     OW 1193   1.102   2.766   2.604  0.1353 -0.4210 -0.2013
  299SOL    HW1 1194   1.177   2.707   2.595  1.9806  1.7898 -0.3502
  299SOL    HW2 1195   1.026   2.712   2.582  1.6518 -2.7943  0.0267
  299SOL     MW 1196   1.102   2.752   2.600  0.0005 -0.0006 -0.0016
  300SOL     OW 1197   0.829   0.584   1.360 -0.2103  0.3563 -0.2966
  300SOL    HW1 1198   0.788   0.668   1.382  0.4867  0.8823 -0.9221
  300SOL    HW2 1199   0.905   0.580   1.418  0.8745  1.1153 -1.6034
  300SOL     MW 1200   0.834   0.595   1.370  0.0005 -0.0006 -0.0016
  301SOL     OW 1201   0.661   2.779   1.164 -0.9974 -0.9031 -0.3370
  301SOL    HW1 1202   0.700   2.820   1.086 -1.0308  0.0433  0.1335
  301SOL    HW2 1203   0.724   2.796   1.234 -2.2494  0.7726  0.4707
  301SOL     MW 1204   0.674   2.787   1.163  0.0005 -0.0006 -0.0016
  302SOL     OW 1205   1.655   2.955   0.675  0.0597 -0.5892 -0.0630
  302SOL    HW1 1206   1.592   2.889   0.704 -2.0187 -0.1271 -2.9879
  302SOL    HW2 1207   1.707   2.909   0.608 -0.1669  0.1806 -0.7881
  302SOL     MW 1208   1.653   2.941   0.670  0.0005 -0.0006 -0.0016
  303SOL     OW 1209   0.274   1.640   2.786  0.3317 -0.4305  0.4155
  303SOL    HW1 1210   0.332   1.642   2.862  2.0007 -2.1501 -0.7109
  303SOL    HW2 1211   0.333   1.651   2.711 -0.9700 -0.8818 -0.7158
  303SOL     MW 1212   0.289   1.641   2.786  0.0005 -0.0006 -0.0016
  304SOL     OW 1213   3.081   1.566   2.765 -0.0133 -0.2671  0.4639
  304SOL    HW1 1214   3.170   1.601   2.770  0.3940 -1.2901  0.5048
  304SOL    HW2 1215   3.053   1.584   2.675 -0.3636  1.4247  0.8734
  304SOL     MW 1216   3.089   1.573   2.754  0.0005 -0.0006 -0.0016
  305SOL     OW 1217   0.951   0.257   2.703 -0.0253 -0.2598 -0.8467
  305SOL    HW1 1218   0.870   0.206   2.704 -0.2283  0.0351 -1.7639
  305SOL    HW2 1219   1.021   0.193   2.715 -0.4460 -0.3387  1.9154
  305SOL     MW 1220   0.950   0.242   2.705  0.0005 -0.0006 -0.0016
  306SOL     OW 1221   2.953   2.044   2.320  0.4314 -1.0838 -0.5083
  306SOL    HW1 1222   2.891   2.109   2.289 -1.1314 -1.6322  1.2753
  306SOL    HW2 1223   2.902   1.987   2.377  2.3406 -2.2594  0.1402
  306SOL     MW 1224   2.939   2.045   2.323  0.0005 -0.0006 -0.0016
  307SOL     OW 1225   1.287   0.733   2.621 -0.0179 -0.5520 -0.2494
  307SOL    HW1 1226   1.210   0.676   2.619 -2.4326  2.4865 -0.2667
  307SOL    HW2 1227   1.307   0.749   2.529 -0.9036  0.5271 -0.2702
  307SOL     MW 1228   1.279   0.728   2.609  0.0005 -0.0006 -0.0016
  308SOL     OW 1229   0.952   1.648   2.255 -0.3545  0.2074 -0.1400
  308SOL    HW1 1230   0.966   1.736   2.221  0.4977  0.6899  1.4050
  308SOL    HW2 1231   0.896   1.606   2.189 -2.8591  2.6549  0.2722
  308SOL     MW 1232   0.947   1.654   2.242  0.0005 -0.0006 -0.0016
  309SOL     OW 1233   0.803   3.000   1.508  0.3700 -0.1668 -0.3006
  309SOL    HW1 1234   0.710   3.012   1.529  0.8125  0.5848  1.4266
  309SOL    HW2 1235   0.825   3.076   1.454 -0.2376 -0.9078 -1.6565
  309SOL     MW 1236   0.794   3.011   1.504  0.0005 -0.0006 -0.0016
  310SOL     OW 1237   2.771   0.507   2.919 -0.6088  0.0789  0.0324
  310SOL    HW1 1238   2.810   0.594   2.919 -0.5021  0.0383  1.1093
  310SOL    HW2 1239   2.703   0.510   2.985  0.8213 -1.2559  1.6662
  310SOL     MW 1240   2.768   0.518   2.927  0.0005 -0.0006 -0.0016
  311SOL     OW 1241   2.581   2.724   2.969  0.3391  0.1343 -0.1535
  311SOL    HW1 1242   2.557   2.773   2.890 -0.4987 -1.8387 -1.1867
  311SOL    HW2 1243   2.664   2.681   2.947  1.5697  1.7496  1.0847
  311SOL     MW 1244   2.588   2.725   2.956  0.0005 -0.0006 -0.0016
  312SOL     OW 1245   0.104   1.692   1.385 -0.6844  0.2818  0.5118
  312SOL    HW1 1246   0.065   1.658   1.465 -1.6608  1.0536  0.3927
  312SOL    HW2 1247   0.196   1.704   1.406 -0.1598 -2.7436  0.4402
  312SOL     MW 1248   0.111   1.689   1.398  0.0005 -0.0006 -0.0016
  313SOL     OW 1249   1.125   2.147   2.419 -0.1710  0.2657 -0.1286
  313SOL    HW1 1250   1.171   2.114   2.342 -0.1093  0.5364 -0.2091
  313SOL    HW2 1251   1.048   2.090   2.427  1.1792 -1.4845  1.1813
  313SOL     MW 1252   1.121   2.135   2.410  0.0005 -0.0006 -0.0016
  314SOL     OW 1253   1.192   0.739   1.356  0.0022  1.2517 -0.0701
  314SOL    HW1 1254   1.170   0.706   1.269  1.0923 -0.3933  0.2252
  314SOL    HW2 1255   1.271   0.791   1.343 -0.6451  2.2149 -0.2523
  314SOL     MW 1256   1.199   0.742   1.344  0.0005 -0.0006 -0.0016
  315SOL     OW 1257   1.589   0.271   2.005 -0.1282 -0.4501  0.3521
  315SOL    HW1 1258   1.660   0.329   2.032  0.0488  0.0398 -1.0893
  315SOL    HW2 1259   1.561   0.228   2.086  1.4875 -0.3024  1.0286
  315SOL     MW 1260   1.594   0.273   2.019  0.0005 -0.0006 -0.0016
  316SOL     OW 1261   0.800   2.939   0.993 -0.0292  0.7812  0.5917
  316SOL    HW1 1262   0.793   2.895   0.908 -0.1768  0.4823  0.7582
  316SOL    HW2 1263   0.748   3.019   0.983  0.0372  0.7963  0.3692
  316SOL     MW 1264   0.792   2.944   0.981  0.0005 -0.0006 -0.0016
  317SOL     OW 1265   2.346   2.112   2.714  0.9143  0.1164 -0.4342
  317SOL    HW1 1266   2.401   2.159   2.777 -0.0305 -0.7300  1.1051
  317SOL    HW2 1267   2.271   2.170   2.700 -0.2834 -0.8202  1.5145
  317SOL     MW 1268   2.343   2.125   2.721  0.0005 -0.0006 -0.0016
  318SOL     OW 1269   2.674   1.665   1.742 -0.0186  0.5934 -0.1250
  318SOL    HW1 1270   2.703   1.728   1.808  0.1171 -0.0892  0.4935
  318SOL    HW2 1271   2.639   1.718   1.671 -0.4012  1.3502  0.6037
  318SOL     MW 1272   2.673   1.680   1.742  0.0005 -0.0006 -0.0016
  319SOL     OW 1273   0.074   2.727   2.757 -0.3359  0.0251  0.5792
  319SOL    HW1 1274   0.144   2.664   2.770 -0.4448 -0.2748 -0.2320
  319SOL    HW2 1275   0.072   2.741   2.662 -1.8980 -0.5746  0.5034
  319SOL     MW 1276   0.083   2.721   2.746  0.0005 -0.0006 -0.0016
  320SOL     OW 1277   2.270   0.380   1.047  0.3061  0.4905  0.2013
  320SOL    HW1 1278   2.258   0.401   0.955 -0.2725 -0.0267  0.1545
  320SOL    HW2 1279   2.354   0.335   1.051 -0.3460 -0.8192 -0.3044
  320SOL     MW 1280   2.279   0.377   1.036  0.0005 -0.0006 -0.0016
  321SOL     OW 1281   0.027   1.104   2.012 -0.0881  0.2063  0.2972
  321SOL    HW1 1282  -0.026   1.133   1.938 -0.2085  0.4184  0.4655
  321SOL    HW2 1283   0.013   1.170   2.080  0.1723  0.1163  0.4428
  321SOL     MW 1284   0.018   1.116   2.012  0.0005 -0.0006 -0.0016
  322SOL     OW 1285   0.683   2.907   2.724 -0.1835  0.3716 -0.1928
  322SOL    HW1 1286   0.594   2.879   2.748  0.3772  0.1455  1.8729
  322SOL    HW2 1287   0.686   2.999   2.749 -0.5812  1.1176 -2.6662
  322SOL     MW 1288   0.672   2.915   2.731  0.0005 -0.0006 -0.0016
  323SOL     OW 1289   0.033   1.095   2.657 -0.0441  0.0598  0.0115
  323SOL    HW1 1290  -0.040   1.039   2.632  0.1245 -0.4161  0.5588
  323SOL    HW2 1291   0.085   1.042   2.717  2.0632 -0.5036 -2.1496
  323SOL     MW 1292   0.030   1.081   2.661  0.0005 -0.0006 -0.0016
  324SOL     OW 1293   0.041   2.725   1.950  0.6145  0.3300 -0.8146
  324SOL    HW1 1294   0.077   2.797   2.002  2.5759 -0.2648 -1.2717
  324SOL    HW2 1295   0.007   2.663   2.015  1.7007  0.2768 -0.2770
  324SOL     MW 1296   0.041   2.726   1.965  0.0005 -0.0006 -0.0016
  325SOL     OW 1297   1.858   0.904   1.517  0.2347 -0.7458 -0.5098
  325SOL    HW1 1298   1.902   0.937   1.439  1.6713  2.1372  1.3369
  325SOL    HW2 1299   1.925   0.908   1.586 -2.0388  0.9641  1.7806
  325SOL     MW 1300   1.873   0.908   1.516  0.0005 -0.0006 -0.0016
  326SOL     OW 1301   1.137   1.159   0.491 -0.1284 -0.0309  0.2021
  326SOL    HW1 1302   1.200   1.195   0.554  0.8057  1.3869 -1.4360
  326SOL    HW2 1303   1.188   1.097   0.439 -0.6358 -0.4691  0.2311
  326SOL     MW 1304   1.152   1.156   0.493  0.0005 -0.0006 -0.0016
  327SOL     OW 1305   1.129   1.415   0.248 -0.5673 -0.5876 -0.4042
  327SOL    HW1 1306   1.154   1.491   0.196  1.2399 -1.2948 -0.6333
  327SOL    HW2 1307   1.101   1.350   0.183  1.5612 -1.4238 -0.5609
  327SOL     MW 1308   1.129   1.416   0.233  0.0005 -0.0006 -0.0016
  328SOL     OW 1309   1.697   0.599   2.508  0.0582  0.0746  0.3316
  328SOL    HW1 1310   1.746   0.526   2.470  1.5500  0.9834  0.4251
  328SOL    HW2 1311   1.650   0.638   2.434 -0.2875 -0.6183  0.1801
  328SOL     MW 1312   1.697   0.595   2.494  0.0005 -0.0006 -0.0016
  329SOL     OW 1313   0.579   2.866   2.163  0.6937 -0.3186 -0.6575
  329SOL    HW1 1314   0.658   2.861   2.217  0.8897  1.8969 -0.6328
  329SOL    HW2 1315   0.564   2.960   2.152 -2.0402 -0.6833 -0.5525
  329SOL     MW 1316   0.588   2.877   2.168  0.0005 -0.0006 -0.0016
  330SOL     OW 1317   0.174   3.077   3.109  0.7615  0.6239  0.0959
  330SOL    HW1 1318   0.218   3.018   3.171  1.7007  0.4148 -0.7433
  330SOL    HW2 1319   0.245   3.132   3.075  0.2097  0.9149 -0.5875
  330SOL     MW 1320   0.189   3.076   3.113  0.0005 -0.0006 -0.0016
  331SOL     OW 1321   2.913   1.897   1.341 -0.4091 -0.1650 -0.1279
  331SOL    HW1 1322   2.965   1.843   1.282 -0.5044  0.3962 -0.7403
  331SOL    HW2 1323   2.822   1.873   1.322 -0.3982 -1.0037  0.8030
  331SOL     MW 1324   2.908   1.887   1.331  0.0005 -0.0006 -0.0016
  332SOL     OW 1325   0.492   0.879   0.369  0.0407  0.8346  0.3965
  332SOL    HW1 1326   0.470   0.870   0.277  0.4304 -1.4832  0.4796
  332SOL    HW2 1327   0.573   0.830   0.380  1.3987  3.1653  1.5212
  332SOL     MW 1328   0.499   0.871   0.359  0.0005 -0.0006 -0.0016
  333SOL     OW 1329   0.557   2.881   1.835 -0.3642 -0.9529 -0.2272
  333SOL    HW1 1330   0.625   2.929   1.788 -0.0658 -1.1028  0.0511
  333SOL    HW2 1331   0.572   2.790   1.813  1.5881 -1.3831  2.3841
  333SOL     MW 1332   0.567   2.876   1.826  0.0005 -0.0006 -0.0016
  334SOL     OW 1333   1.348   2.036   2.683  0.5593 -0.2576 -0.0288
  334SOL    HW1 1334   1.386   2.064   2.599  0.7986 -1.8466 -0.4881
  334SOL    HW2 1335   1.308   2.115   2.719  0.4317  0.4636 -1.6603
  334SOL     MW 1336   1.348   2.049   2.677  0.0005 -0.0006 -0.0016
  335SOL     OW 1337   2.854   0.785   1.505 -0.4297  0.3831 -0.2876
  335SOL    HW1 1338   2.758   0.780   1.505 -0.3965 -0.7305 -1.7357
  335SOL    HW2 1339   2.883   0.694   1.512  0.5335  0.6816 -0.2295
  335SOL     MW 1340   2.845   0.773   1.506  0.0005 -0.0006 -0.0016
  336SOL     OW 1341   0.530   1.845   0.674 -0.1725  0.1832  0.5479
  336SOL    HW1 1342   0.608   1.789   0.666  0.0536  0.5950 -0.2515
  336SOL    HW2 1343   0.527   1.870   0.766 -0.0076 -0.7604  0.8198
  336SOL     MW 1344   0.540   1.841   0.684  0.0005 -0.0006 -0.0016
  337SOL     OW 1345   1.436   0.167   1.239  0.3718 -0.1267  0.0623
  337SOL    HW1 1346   1.523   0.155   1.276  1.0059  0.2152 -1.2688
  337SOL    HW2 1347   1.433   0.107   1.164 -0.8494 -0.7478  0.5779
  337SOL     MW 1348   1.447   0.158   1.234  0.0005 -0.0006 -0.0016
  338SOL     OW 1349   0.143   2.449   0.440  0.4208  0.3879  0.2953
  338SOL    HW1 1350   0.134   2.387   0.513 -0.0840 -1.5301 -1.2994
  338SOL    HW2 1351   0.058   2.446   0.396  1.0564  0.6601 -0.9887
  338SOL     MW 1352   0.131   2.440   0.444  0.0005 -0.0006 -0.0016
  339SOL     OW 1353   0.224   0.947   1.967  0.2043 -0.2666  0.0012
  339SOL    HW1 1354   0.157   1.010   1.992 -0.8455 -0.7524 -1.4459
  339SOL    HW2 1355   0.257   0.912   2.051 -3.0892 -1.8054  0.8299
  339SOL     MW 1356   0.220   0.950   1.981  0.0005 -0.0006 -0.0016
  340SOL     OW 1357   0.778   0.323   1.479  0.0894 -0.1897  0.2097
  340SOL    HW1 1358   0.792   0.243   1.428  1.7655  0.2147 -0.0263
  340SOL    HW2 1359   0.776   0.392   1.413  1.0203  0.2015  0.5802
  340SOL     MW 1360   0.780   0.321   1.464  0.0005 -0.0006 -0.0016
  341SOL     OW 1361   1.445   2.303   1.373 -0.0461 -0.0686  0.2876
  341SOL    HW1 1362   1.470   2.275   1.462 -0.7169 -0.2219  0.4309
  341SOL    HW2 1363   1.382   2.238   1.344  0.4988 -0.2636 -0.4823
  341SOL     MW 1364   1.440   2.291   1.381  0.0005 -0.0006 -0.0016
  342SOL     OW 1365   2.784   0.739   0.219  0.2333 -0.0353 -0.1842
  342SOL    HW1 1366   2.775   0.782   0.305  1.6787  1.9125 -0.9406
  342SOL    HW2 1367   2.695   0.711   0.198 -0.0530 -1.3378  2.2836
  342SOL     MW 1368   2.771   0.741   0.228  0.0005 -0.0006 -0.0016
  343SOL     OW 1369   2.694   0.430   2.384  0.2919 -0.1871 -0.4729
  343SOL    HW1 1370   2.740   0.428   2.300 -2.0932  0.2295 -1.8796
  343SOL    HW2 1371   2.693   0.523   2.408 -0.7240 -0.0429 -1.0204
  343SOL     MW 1372   2.700   0.442   2.376  0.0005 -0.0006 -0.0016
  344SOL     OW 1373   2.514   3.074   2.056  0.3964  0.5710 -0.0499
  344SOL    HW1 1374   2.585   3.011   2.043  1.0086  1.1392  0.4670
  344SOL    HW2 1375   2.532   3.113   2.142 -1.2805 -0.2079  0.6968
  344SOL     MW 1376   2.525   3.071   2.065  0.0005 -0.0006 -0.0016
  345SOL     OW 1377   1.208   1.995   3.048 -0.2486 -0.1049  0.0212
  345SOL    HW1 1378   1.193   1.959   3.135 -0.7156  3.2879  1.5264
  345SOL    HW2 1379   1.128   1.978   3.000 -0.1327 -1.6922  0.3485
  345SOL     MW 1380   1.196   1.988   3.053  0.0005 -0.0006 -0.0016
  346SOL     OW 1381   0.781   1.745   2.544  0.2043 -0.2830  0.0204
  346SOL    HW1 1382   0.767   1.650   2.551 -1.2448 -0.1132 -0.3212
  346SOL    HW2 1383   0.712   1.775   2.485 -0.2888  1.2052  1.2948
  346SOL     MW 1384   0.770   1.736   2.537  0.0005 -0.0006 -0.0016
  347SOL     OW 1385   0.427   2.731   0.641  0.1499 -0.5264 -0.1343
  347SOL    HW1 1386   0.448   2.793   0.571  0.3491  0.9391  1.1711
  347SOL    HW2 1387   0.335   2.710   0.628  0.1347 -0.1125 -0.7146
  347SOL     MW 1388   0.418   2.736   0.630  0.0005 -0.0006 -0.0016
  348SOL     OW 1389   1.459   2.701   0.662 -0.1767 -0.1321  0.4447
  348SOL    HW1 1390   1.418   2.617   0.685 -0.4820 -0.1728 -0.2433
  348SOL    HW2 1391   1.434   2.716   0.571  0.0909  0.5865  0.4873
  348SOL     MW 1392   1.451   2.692   0.653  0.0005 -0.0006 -0.0016
  349SOL     OW 1393   1.431   1.128   2.342  0.0328 -0.4573  0.4257
  349SOL    HW1 1394   1.376   1.197   2.378 -0.0268 -0.5356  0.4863
  349SOL    HW2 1395   1.517   1.141   2.382  0.0271 -0.4062  0.4208
  349SOL     MW 1396   1.435   1.138   2.352  0.0005 -0.0006 -0.0016
  350SOL     OW 1397   1.601   0.727   2.291 -0.3583  0.1879 -0.1470
  350SOL    HW1 1398   1.528   0.781   2.322 -0.1707  0.2844  0.1369
  350SOL    HW2 1399   1.660   0.789   2.248  0.9021  0.6172  2.0216
  350SOL     MW 1400   1.599   0.742   2.289  0.0005 -0.0006 -0.0016
  351SOL     OW 1401   2.756   0.895   2.246 -0.4429  0.4328  0.2534
  351SOL    HW1 1402   2.834   0.951   2.245 -1.3120  1.7303  1.3052
  351SOL    HW2 1403   2.776   0.825   2.184  0.6078  2.0189 -1.2911
  351SOL     MW 1404   2.769   0.893   2.238  0.0005 -0.0006 -0.0016
  352SOL     OW 1405   2.578   0.474  -0.025 -0.2224  0.1810 -0.2994
  352SOL    HW1 1406   2.609   0.441   0.059 -0.9656 -1.6603 -0.7001
  352SOL    HW2 1407   2.512   0.540  -0.002 -0.5589 -0.4410  0.5693
  352SOL     MW 1408   2.573   0.478  -0.011  0.0005 -0.0006 -0.0016
  353SOL     OW 1409   2.239   0.205   2.293  0.0793 -0.0576 -0.1263
  353SOL    HW1 1410   2.211   0.286   2.336  0.0763 -0.6880  1.1286
  353SOL    HW2 1411   2.312   0.231   2.237 -0.8155  1.0338 -0.8324
  353SOL     MW 1412   2.244   0.218   2.292  0.0005 -0.0006 -0.0016
  354SOL     OW 1413   1.822   2.703   1.210 -0.2452  0.4776 -0.0751
  354SOL    HW1 1414   1.863   2.748   1.283 -2.0623 -0.0891  1.3757
  354SOL    HW2 1415   1.894   2.655   1.168  1.0128  1.6326  0.6785
  354SOL     MW 1416   1.837   2.702   1.214  0.0005 -0.0006 -0.0016
  355SOL     OW 1417   2.172   0.114   2.855  0.2186 -0.3318 -0.3653
  355SOL    HW1 1418   2.212   0.104   2.768  0.3090  0.3352 -0.4036
  355SOL    HW2 1419   2.165   0.025   2.888 -3.1478 -1.0729 -2.5404
  355SOL     MW 1420   2.176   0.101   2.848  0.0005 -0.0006 -0.0016
  356SOL     OW 1421   2.397   1.715   2.465  0.2890 -0.1082 -0.0125
  356SOL    HW1 1422   2.356   1.801   2.474  0.9209  0.2910 -0.8400
  356SOL    HW2 1423   2.457   1.708   2.540 -0.6776 -0.3704  0.7623
  356SOL     MW 1424   2.400   1.725   2.476  0.0005 -0.0006 -0.0016
  357SOL     OW 1425   2.746   0.984   1.852  0.0490  0.4164  0.1313
  357SOL    HW1 1426   2.719   0.922   1.920 -1.6007 -0.4118 -1.2038
  357SOL    HW2 1427   2.788   1.055   1.900 -1.5495  0.1454  2.0853
  357SOL     MW 1428   2.748   0.985   1.867  0.0005 -0.0006 -0.0016
  358SOL     OW 1429   2.987   0.258   0.428  0.4143 -0.4032  0.1888
  358SOL    HW1 1430   2.933   0.204   0.371 -0.1476 -1.2174  1.4354
  358SOL    HW2 1431   2.975   0.347   0.395 -1.3044 -0.6297  0.1033
  358SOL     MW 1432   2.979   0.262   0.417  0.0005 -0.0006 -0.0016
  359SOL     OW 1433   0.391   2.279   0.733 -0.2353  0.3007  0.4873
  359SOL    HW1 1434   0.428   2.230   0.659  1.2201  0.3756  1.1338
  359SOL    HW2 1435   0.454   2.349   0.749 -0.0880 -0.1978  2.3141
  359SOL     MW 1436   0.404   2.282   0.725  0.0005 -0.0006 -0.0016
  360SOL     OW 1437   0.876   1.429   0.533 -0.1197  1.0187  0.4262
  360SOL    HW1 1438   0.965   1.393   0.535 -0.1194  1.0749  1.6856
  360SOL    HW2 1439   0.844   1.405   0.446  0.8392  0.3085  0.2429
  360SOL     MW 1440   0.883   1.421   0.522  0.0005 -0.0006 -0.0016
  361SOL     OW 1441   3.058   1.921   1.975  0.2453 -0.1943 -0.2962
  361SOL    HW1 1442   2.975   1.961   1.950 -0.5825 -0.6929  1.4987
  361SOL    HW2 1443   3.079   1.960   2.060  0.6675 -1.7280  0.3443
  361SOL     MW 1444   3.050   1.931   1.982  0.0005 -0.0006 -0.0016
  362SOL     OW 1445   1.336   1.898   2.322  0.2405  0.0075 -0.6374
  362SOL    HW1 1446   1.256   1.942   2.292 -0.5099 -0.0693  1.1566
  362SOL    HW2 1447   1.384   1.965   2.370  0.5750 -0.3371 -0.4894
  362SOL     MW 1448   1.332   1.912   2.324  0.0005 -0.0006 -0.0016
  363SOL     OW 1449   2.008   0.470   2.817  0.5344  0.0886 -0.2212
  363SOL    HW1 1450   1.988   0.465   2.910 -0.0375 -0.2090 -0.3574
  363SOL    HW2 1451   1.988   0.383   2.783  2.0948 -0.2485 -0.3665
  363SOL     MW 1452   2.003   0.458   2.824  0.0005 -0.0006 -0.0016
  364SOL     OW 1453   0.151   1.464   3.020 -0.2362  0.2941  0.0675
  364SOL    HW1 1454   0.133   1.480   2.927 -0.5288 -0.9460 -0.1097
  364SOL    HW2 1455   0.161   1.369   3.026  1.9119  0.5110  0.9433
  364SOL     MW 1456   0.150   1.454   3.008  0.0005 -0.0006 -0.0016
  365SOL     OW 1457   0.275   2.909   0.210  0.5758  0.0423  0.1109
  365SOL    HW1 1458   0.195   2.882   0.255 -0.0881 -0.2090 -1.1736
  365SOL    HW2 1459   0.302   2.831   0.161  1.3126  0.2868  0.1158
  365SOL     MW 1460   0.269   2.895   0.210  0.0005 -0.0006 -0.0016
  366SOL     OW 1461   2.888   1.554   2.282  0.7736  0.4707  0.2435
  366SOL    HW1 1462   2.945   1.531   2.208  0.7737  0.5239  0.2272
  366SOL    HW2 1463   2.851   1.470   2.310 -0.9334  0.6868 -1.1972
  366SOL     MW 1464   2.891   1.540   2.276  0.0005 -0.0006 -0.0016
  367SOL     OW 1465   2.429   0.815   1.220  0.4043  0.8245  0.0777
  367SOL    HW1 1466   2.337   0.804   1.246  0.2565  3.1157  0.6919
  367SOL    HW2 1467   2.464   0.726   1.217 -2.5317 -0.4490 -3.0042
  367SOL     MW 1468   2.422   0.802   1.223  0.0005 -0.0006 -0.0016
  368SOL     OW 1469   2.184   2.251   1.739 -0.4653  0.0564  0.1595
  368SOL    HW1 1470   2.213   2.341   1.728 -0.8663  0.1009 -0.5796
  368SOL    HW2 1471   2.138   2.230   1.658  2.9291 -2.0930 -1.4123
  368SOL     MW 1472   2.182   2.259   1.727  0.0005 -0.0006 -0.0016
  369SOL     OW 1473   1.016   0.295   2.014  0.2035 -0.2979 -0.3977
  369SOL    HW1 1474   0.922   0.305   2.005 -0.0847 -1.7224  0.7170
  369SOL    HW2 1475   1.046   0.268   1.927 -0.2938  0.7817 -0.9245
  369SOL     MW 1476   1.008   0.293   2.002  0.0005 -0.0006 -0.0016
  370SOL     OW 1477   1.062   0.320   1.512 -0.0771 -0.1272 -0.2522
  370SOL    HW1 1478   0.967   0.309   1.517 -0.0248  0.0443  1.9918
  370SOL    HW2 1479   1.074   0.412   1.487 -0.5611  0.4774  1.5512
  370SOL     MW 1480   1.051   0.331   1.509  0.0005 -0.0006 -0.0016
  371SOL     OW 1481   0.691   1.555   1.950 -0.1582  0.3184 -0.2101
  371SOL    HW1 1482   0.614   1.573   1.895  0.5810  1.8943 -0.7919
  371SOL    HW2 1483   0.765   1.588   1.899  0.7685  0.0113  0.9034
  371SOL     MW 1484   0.690   1.562   1.937  0.0005 -0.0006 -0.0016
  372SOL     OW 1485   2.798   2.498   1.950 -0.1629 -0.3752  0.6463
  372SOL    HW1 1486   2.719   2.512   1.898  0.3824 -1.5289 -0.5506
  372SOL    HW2 1487   2.862   2.558   1.913 -0.4278  0.4828  1.5466
  372SOL     MW 1488   2.796   2.507   1.939  0.0005 -0.0006 -0.0016
  373SOL     OW 1489   2.361   1.405   2.453  0.2941 -0.5961 -0.1073
  373SOL    HW1 1490   2.313   1.367   2.380 -1.2241  0.1943  0.4304
  373SOL    HW2 1491   2.350   1.499   2.442  0.7457 -0.4490  0.6690
  373SOL     MW 1492   2.353   1.412   2.443  0.0005 -0.0006 -0.0016
  374SOL     OW 1493   2.703   3.090   0.025 -1.0646 -0.0889 -1.0845
  374SOL    HW1 1494   2.778   3.035   0.049 -2.9702 -1.8662  1.3621
  374SOL    HW2 1495   2.694   3.079  -0.069 -0.5002 -2.9870 -0.8973
  374SOL     MW 1496   2.712   3.081   0.016  0.0005 -0.0006 -0.0016
  375SOL     OW 1497   1.826   1.351   2.148 -0.7721 -0.4553 -0.3827
  375SOL    HW1 1498   1.847   1.263   2.178 -1.0995 -0.2439  0.5182
  375SOL    HW2 1499   1.823   1.403   2.229  1.2333  0.7811 -1.0355
  375SOL     MW 1500   1.828   1.347   2.162  0.0005 -0.0006 -0.0016
  376SOL     OW 1501   0.119   2.778   2.256 -0.0932 -0.0890 -0.1058
  376SOL    HW1 1502   0.125   2.872   2.273 -2.4063 -0.0256  0.6122
  376SOL    HW2 1503   0.178   2.764   2.181  1.4893  1.6183  0.7251
  376SOL     MW 1504   0.127   2.788   2.248  0.0005 -0.0006 -0.0016
  377SOL     OW 1505   0.260   1.774   0.614  0.0468  0.4351  0.0645
  377SOL    HW1 1506   0.350   1.796   0.639 -0.0627 -0.0596  0.9104
  377SOL    HW2 1507   0.269   1.707   0.546  0.3049  0.2414  0.2929
  377SOL     MW 1508   0.272   1.768   0.608  0.0005 -0.0006 -0.0016
  378SOL     OW 1509   2.571   2.681   0.455 -0.1402  0.1266  0.1445
  378SOL    HW1 1510   2.515   2.706   0.529 -0.8600 -2.2955  0.4797
  378SOL    HW2 1511   2.605   2.595   0.478 -0.5052 -0.7834 -2.4098
  378SOL     MW 1512   2.569   2.673   0.468  0.0005 -0.0006 -0.0016
  379SOL     OW 1513   2.706   0.445   1.678 -0.1208  0.0028  0.2793
  379SOL    HW1 1514   2.775   0.463   1.614 -0.0085 -1.0804  0.0771
  379SOL    HW2 1515   2.625   0.453   1.627 -0.1685  1.2895  0.5204
  379SOL     MW 1516   2.704   0.449   1.663  0.0005 -0.0006 -0.0016
  380SOL     OW 1517   0.465   1.182   0.939  0.7923  0.0301  0.4014
  380SOL    HW1 1518   0.503   1.112   0.886 -0.2055  0.2716 -0.6777
  380SOL    HW2 1519   0.383   1.145   0.972  0.9387  0.2185  0.9974
  380SOL     MW 1520   0.459   1.168   0.937  0.0005 -0.0006 -0.0016
  381SOL     OW 1521   0.565   0.441   2.767 -0.4890 -0.2933 -0.2204
  381SOL    HW1 1522   0.589   0.396   2.686 -1.7741  0.1257 -0.8729
  381SOL    HW2 1523   0.535   0.527   2.739 -1.5620 -0.3653  0.6273
  381SOL     MW 1524   0.564   0.446   2.753  0.0005 -0.0006 -0.0016
  382SOL     OW 1525   0.299   0.674   2.049  0.6261  0.7660  0.2588
  382SOL    HW1 1526   0.266   0.592   2.010  0.2144  1.7079 -1.5111
  382SOL    HW2 1527   0.394   0.667   2.042  0.6379  0.0448  1.0017
  382SOL     MW 1528   0.307   0.663   2.043  0.0005 -0.0006 -0.0016
  383SOL     OW 1529   1.097   0.688   1.083  0.3504 -0.3397 -0.3170
  383SOL    HW1 1530   1.144   0.764   1.048  0.3109  0.4286  1.2184
  383SOL    HW2 1531   1.084   0.631   1.007  3.0206 -0.2175 -0.9571
  383SOL     MW 1532   1.102   0.690   1.069  0.0005 -0.0006 -0.0016
  384SOL     OW 1533   0.696   2.513   0.349  0.2366  0.0927  0.3909
  384SOL    HW1 1534   0.769   2.519   0.287  0.3456  0.6103  0.5697
  384SOL    HW2 1535   0.706   2.589   0.406  0.4182 -0.6490  1.3581
  384SOL     MW 1536   0.707   2.523   0.348  0.0005 -0.0006 -0.0016
  385SOL     OW 1537   2.741   2.163   0.747  0.0091 -0.2602 -0.0704
  385SOL    HW1 1538   2.743   2.103   0.673 -0.9242  1.3370 -1.4682
  385SOL    HW2 1539   2.684   2.121   0.811  1.7207 -2.1934  0.2806
  385SOL     MW 1540   2.734   2.150   0.745  0.0005 -0.0006 -0.0016
  386SOL     OW 1541   2.518   1.748   1.537 -0.2704 -0.5585 -0.3980
  386SOL    HW1 1542   2.518   1.654   1.517 -0.1576 -0.2556 -1.9436
  386SOL    HW2 1543   2.564   1.788   1.463 -1.2888  0.8162 -0.3189
  386SOL     MW 1544   2.524   1.741   1.525  0.0005 -0.0006 -0.0016
  387SOL     OW 1545   1.858   1.813   3.078 -0.3984 -0.2191  0.1926
  387SOL    HW1 1546   1.779   1.815   3.132 -0.4512 -0.7696  0.1466
  387SOL    HW2 1547   1.850   1.732   3.028  0.6185 -0.7365  0.8287
  387SOL     MW 1548   1.847   1.803   3.078  0.0005 -0.0006 -0.0016
  388SOL     OW 1549   0.867   1.099   2.394  0.0803 -0.9289  0.1179
  388SOL    HW1 1550   0.877   1.007   2.370  0.2253 -1.5048  2.1954
  388SOL    HW2 1551   0.795   1.130   2.338  0.3346 -2.1564 -0.9419
  388SOL     MW 1552   0.859   1.091   2.384  0.0005 -0.0006 -0.0016
  389SOL     OW 1553   0.358   2.385   2.269  0.2190 -0.4146  0.4116
  389SOL    HW1 1554   0.365   2.402   2.175 -1.1454 -1.3838  0.1079
  389SOL    HW2 1555   0.355   2.473   2.308  0.0329  0.0057 -0.5137
  389SOL     MW 1556   0.359   2.399   2.262  0.0005 -0.0006 -0.0016
  390SOL     OW 1557   0.599   2.540   2.345  0.5000 -0.0512 -0.4562
  390SOL    HW1 1558   0.609   2.507   2.255 -0.6257 -1.9668  0.0671
  390SOL    HW2 1559   0.515   2.585   2.344 -0.9448 -2.5175  0.2214
  390SOL     MW 1560   0.590   2.541   2.333  0.0005 -0.0006 -0.0016
  391SOL     OW 1561   1.826   2.973   0.882  0.3335 -0.1623  0.1783
  391SOL    HW1 1562   1.768   2.971   0.806  1.0357 -0.0128 -0.3674
  391SOL    HW2 1563   1.895   2.910   0.861  0.7162  0.1359  0.5363
  391SOL     MW 1564   1.827   2.965   0.870  0.0005 -0.0006 -0.0016
  392SOL     OW 1565   0.071   3.128   1.293 -0.2155 -0.4902  0.2555
  392SOL    HW1 1566   0.131   3.054   1.304  2.6124  1.5218 -0.5148
  392SOL    HW2 1567   0.049   3.155   1.382 -0.8891 -1.9096  0.5409
  392SOL     MW 1568   0.076   3.122   1.305  0.0005 -0.0006 -0.0016
  393SOL     OW 1569   1.547   0.402   0.199  0.1045  0.0373 -0.2466
  393SOL    HW1 1570   1.473   0.398   0.139  0.3498  0.0081 -0.5484
  393SOL    HW2 1571   1.588   0.487   0.183  0.3447 -0.0925 -0.3308
  393SOL     MW 1572   1.543   0.412   0.189  0.0005 -0.0006 -0.0016
  394SOL     OW 1573   1.779   1.590   1.584 -0.3388 -0.0261  0.2784
  394SOL    HW1 1574   1.700   1.560   1.629 -1.1610 -0.8786 -1.5900
  394SOL    HW2 1575   1.746   1.649   1.516  0.8077  0.9214  0.5263
  394SOL     MW 1576   1.764   1.593   1.581  0.0005 -0.0006 -0.0016
  395SOL     OW 1577   0.767   1.729   0.927  0.5516 -0.1534  0.6319
  395SOL    HW1 1578   0.825   1.779   0.870 -0.6528  0.5600 -0.0006
  395SOL    HW2 1579   0.699   1.790   0.954 -0.9867 -1.4037 -0.1959
  395SOL     MW 1580   0.765   1.743   0.923  0.0005 -0.0006 -0.0016
  396SOL     OW 1581   1.440   0.552   0.932  0.1240  0.0061 -0.3183
  396SOL    HW1 1582   1.379   0.508   0.991 -0.5842 -0.1635 -1.1724
  396SOL    HW2 1583   1.425   0.645   0.947  1.9463  0.0523  1.8351
  396SOL     MW 1584   1.431   0.558   0.942  0.0005 -0.0006 -0.0016
  397SOL     OW 1585   3.108   0.747   3.017 -0.3808 -0.4701  0.3398
  397SOL    HW1 1586   3.083   0.798   3.094 -1.2230  0.1206 -0.3079
  397SOL    HW2 1587   3.027   0.737   2.967  0.5087  0.9263 -1.5003
  397SOL     MW 1588   3.094   0.752   3.021  0.0005 -0.0006 -0.0016
  398SOL     OW 1589   2.496   1.294   2.673  0.1461  0.4809  0.1415
  398SOL    HW1 1590   2.475   1.210   2.713 -0.8804  0.9087  0.5303
  398SOL    HW2 1591   2.429   1.306   2.606  2.3924 -0.6992 -2.5312
  398SOL     MW 1592   2.485   1.285   2.670  0.0005 -0.0006 -0.0016
  399SOL     OW 1593   2.154   0.792   1.291 -0.0020 -0.3645 -0.5199
  399SOL    HW1 1594   2.121   0.881   1.297  2.2776  0.7027 -2.2370
  399SOL    HW2 1595   2.077   0.739   1.272 -1.4386  1.1622  0.7704
  399SOL     MW 1596   2.140   0.797   1.289  0.0005 -0.0006 -0.0016
  400SOL     OW 1597   1.862   2.963   1.720  0.3222  0.1545  0.2242
  400SOL    HW1 1598   1.874   3.045   1.672 -1.4063  1.0526  1.2278
  400SOL    HW2 1599   1.923   2.969   1.794 -0.8506  1.2827  1.1514
  400SOL     MW 1600   1.871   2.974   1.723  0.0005 -0.0006 -0.0016
  401SOL     OW 1601   0.652   0.660   1.631 -0.3960  0.1494 -0.3020
  401SOL    HW1 1602   0.694   0.576   1.653 -0.4811 -0.0104 -0.7366
  401SOL    HW2 1603   0.568   0.658   1.676  0.1370  0.5583  0.7469
  401SOL     MW 1604   0.647   0.649   1.640  0.0005 -0.0006 -0.0016
  402SOL     OW 1605   0.270   2.694   0.054  0.0324 -0.1124 -0.1470
  402SOL    HW1 1606   0.279   2.733  -0.033 -1.8060 -0.8325 -0.7079
  402SOL    HW2 1607   0.330   2.619   0.053  0.7288  0.4313 -0.4304
  402SOL     MW 1608   0.279   2.690   0.043  0.0005 -0.0006 -0.0016
  403SOL     OW 1609   2.728   2.467   0.238 -0.2444 -0.2582 -0.1709
  403SOL    HW1 1610   2.652   2.523   0.226  2.2819  3.9170  1.0861
  403SOL    HW2 1611   2.784   2.485   0.162  1.4285  0.4903  1.1609
  403SOL     MW 1612   2.726   2.476   0.227  0.0005 -0.0006 -0.0016
  404SOL     OW 1613   0.105   1.882   2.604 -1.3096 -0.2196  0.2381
  404SOL    HW1 1614   0.053   1.803   2.591 -1.1294 -0.3632  0.3766
  404SOL    HW2 1615   0.045   1.944   2.647 -1.6761 -0.0117 -0.5491
  404SOL     MW 1616   0.091   1.880   2.608  0.0005 -0.0006 -0.0016
  405SOL     OW 1617   1.470   2.113   2.429 -0.1934  0.4321 -0.2257
  405SOL    HW1 1618   1.558   2.151   2.434 -0.5060  1.1092  0.3044
  405SOL    HW2 1619   1.415   2.183   2.392 -0.7078  0.3938  0.4453
  405SOL     MW 1620   1.474   2.127   2.425  0.0005 -0.0006 -0.0016
  406SOL     OW 1621   0.432   1.984   2.532 -0.1948 -0.0122 -0.2070
  406SOL    HW1 1622   0.447   2.003   2.625 -1.1947 -1.3440  0.2571
  406SOL    HW2 1623   0.371   2.052   2.504  1.1859  1.2443 -0.2902
  406SOL     MW 1624   0.426   1.995   2.541  0.0005 -0.0006 -0.0016
  407SOL     OW 1625   1.806   2.164   1.766  0.1896 -0.2097  0.4149
  407SOL    HW1 1626   1.874   2.208   1.816  1.1320  1.2791 -2.0317
  407SOL    HW2 1627   1.852   2.094   1.720  0.0112  0.5297 -0.9128
  407SOL     MW 1628   1.820   2.160   1.767  0.0005 -0.0006 -0.0016
  408SOL     OW 1629   0.161   0.319   0.923  0.1705  0.5635 -0.2481
  408SOL    HW1 1630   0.252   0.304   0.898  0.3153  0.0139  0.5721
  408SOL    HW2 1631   0.116   0.335   0.840  1.0664  1.1578 -0.6366
  408SOL     MW 1632   0.167   0.319   0.909  0.0005 -0.0006 -0.0016
  409SOL     OW 1633   2.103   2.484   0.498 -0.6748  0.2453 -0.2241
  409SOL    HW1 1634   2.138   2.569   0.524 -0.9551  0.4841 -0.6082
  409SOL    HW2 1635   2.060   2.501   0.414  0.9214 -0.6713 -1.2759
  409SOL     MW 1636   2.102   2.497   0.490  0.0005 -0.0006 -0.0016
  410SOL     OW 1637   3.067   0.257   1.102 -0.0237  0.2533  0.5841
  410SOL    HW1 1638   3.148   0.256   1.052 -0.0567  0.5058  0.5230
  410SOL    HW2 1639   3.040   0.165   1.106  0.5667  0.0916  1.1007
  410SOL     MW 1640   3.074   0.245   1.096  0.0005 -0.0006 -0.0016
  411SOL     OW 1641   1.947   0.998   1.031  0.2491  0.5520 -0.5777
  411SOL    HW1 1642   1.932   1.085   0.994  0.2827  1.1358  0.7142
  411SOL    HW2 1643   1.873   0.945   1.001 -0.2798  1.2869 -0.5736
  411SOL     MW 1644   1.936   1.002   1.022  0.0005 -0.0006 -0.0016
  412SOL     OW 1645   1.040   1.304   0.037 -0.0554 -0.3546 -0.1071
  412SOL    HW1 1646   1.065   1.212   0.037  1.2575 -0.0218 -0.4625
  412SOL    HW2 1647   0.991   1.316  -0.044  1.5807 -0.3067 -1.1239
  412SOL     MW 1648   1.037   1.294   0.027  0.0005 -0.0006 -0.0016
  413SOL     OW 1649   2.290   2.904   2.056 -0.5539 -0.1662  0.1306
  413SOL    HW1 1650   2.333   2.819   2.063 -0.1136 -0.2145 -2.3239
  413SOL    HW2 1651   2.360   2.965   2.035 -1.1538  0.4043 -0.2742
  413SOL     MW 1652   2.304   2.901   2.054  0.0005 -0.0006 -0.0016
  414SOL     OW 1653   0.199   0.477   2.610 -0.3690  0.2236 -0.2718
  414SOL    HW1 1654   0.198   0.482   2.706  1.0298  1.6855 -0.2883
  414SOL    HW2 1655   0.239   0.392   2.591 -3.0467 -1.2985  0.3604
  414SOL     MW 1656   0.204   0.467   2.620  0.0005 -0.0006 -0.0016
  415SOL     OW 1657   0.536   1.866   1.692  0.0589  0.1327 -0.3353
  415SOL    HW1 1658   0.448   1.850   1.727  1.3061 -0.7708  2.7239
  415SOL    HW2 1659   0.528   1.947   1.643 -2.2918  0.5862  0.6749
  415SOL     MW 1660   0.524   1.874   1.690  0.0005 -0.0006 -0.0016
  416SOL     OW 1661   0.144   3.003   0.525 -0.0057  0.8686 -0.3012
  416SOL    HW1 1662   0.189   2.919   0.510  0.5341  0.4878  2.7993
  416SOL    HW2 1663   0.059   2.993   0.483  0.3636 -0.9430 -0.6955
  416SOL     MW 1664   0.139   2.991   0.518  0.0005 -0.0006 -0.0016
  417SOL     OW 1665   2.438   2.815   0.657 -0.5136  0.4938 -0.3109
  417SOL    HW1 1666   2.452   2.903   0.621 -0.2807  0.4061 -0.4340
  417SOL    HW2 1667   2.515   2.799   0.712  0.5464 -0.5025 -2.0023
  417SOL     MW 1668   2.450   2.824   0.660  0.0005 -0.0006 -0.0016
  418SOL     OW 1669   1.216   0.129   1.388 -0.6913  0.4429  0.2298
  418SOL    HW1 1670   1.167   0.204   1.422  0.5338  1.4795 -0.2120
  418SOL    HW2 1671   1.294   0.168   1.349  0.2287 -1.1119  0.4589
  418SOL     MW 1672   1.220   0.144   1.388  0.0005 -0.0006 -0.0016
  419SOL     OW 1673   1.737   0.103   2.770 -0.0035 -0.3598  0.0331
  419SOL    HW1 1674   1.742   0.009   2.789  1.4303  0.0504  1.9870
  419SOL    HW2 1675   1.679   0.137   2.838 -0.4798  0.2099 -0.6452
  419SOL     MW 1676   1.730   0.095   2.781  0.0005 -0.0006 -0.0016
  420SOL     OW 1677   0.993   2.576   1.095 -0.2707 -0.7628  0.2214
  420SOL    HW1 1678   0.938   2.499   1.087 -0.8188 -0.4212  0.6006
  420SOL    HW2 1679   0.932   2.650   1.086  0.1674 -0.3788  0.3645
  420SOL     MW 1680   0.978   2.576   1.093  0.0005 -0.0006 -0.0016
  421SOL     OW 1681   0.411   0.973   1.536 -0.3584 -0.0994 -0.1480
  421SOL    HW1 1682   0.500   0.975   1.500 -0.2558  0.8038  0.1484
  421SOL    HW2 1683   0.423   0.952   1.628 -0.4774 -0.3240 -0.1844
  421SOL     MW 1684   0.424   0.971   1.543  0.0005 -0.0006 -0.0016
  422SOL     OW 1685   2.629   0.506   0.430 -0.4102 -0.5528  0.3212
  422SOL    HW1 1686   2.660   0.419   0.456 -0.8382 -1.2151 -1.2415
  422SOL    HW2 1687   2.686   0.567   0.476 -0.4146 -1.6281  1.8610
  422SOL     MW 1688   2.640   0.502   0.440  0.0005 -0.0006 -0.0016
  423SOL     OW 1689   0.903   0.883   0.676 -0.2581 -0.1230  0.5773
  423SOL    HW1 1690   0.924   0.801   0.631 -0.7550 -0.6840  1.3352
  423SOL    HW2 1691   0.896   0.948   0.606 -0.5173 -0.8665 -0.1048
  423SOL     MW 1692   0.905   0.881   0.661  0.0005 -0.0006 -0.0016
  424SOL     OW 1693   1.110   1.791   0.848 -0.6955  0.1307 -0.0075
  424SOL    HW1 1694   1.177   1.827   0.789 -0.5158 -0.3559 -0.1090
  424SOL    HW2 1695   1.138   1.818   0.936  0.8585 -1.8671  0.1879
  424SOL     MW 1696   1.122   1.799   0.852  0.0005 -0.0006 -0.0016
  425SOL     OW 1697   2.066   2.774   1.369 -0.5829 -0.0319  0.3530
  425SOL    HW1 1698   2.082   2.832   1.295  1.3442 -0.6244  0.2370
  425SOL    HW2 1699   2.071   2.830   1.446 -1.3990  0.3834  0.1114
  425SOL     MW 1700   2.069   2.788   1.369  0.0005 -0.0006 -0.0016
  426SOL     OW 1701   2.632   2.079   0.984 -0.0498 -0.3194  0.2431
  426SOL    HW1 1702   2.588   1.995   0.997 -0.9440  0.3006  1.4043
  426SOL    HW2 1703   2.715   2.071   1.031 -0.4959 -0.2748  1.0451
  426SOL     MW 1704   2.637   2.067   0.992  0.0005 -0.0006 -0.0016
  427SOL     OW 1705   1.105   1.520   0.776  0.3589  0.3227 -0.2843
  427SOL    HW1 1706   1.115   1.613   0.796 -0.0358  0.1408  0.7999
  427SOL    HW2 1707   1.102   1.517   0.680 -1.3448  1.6145 -0.3224
  427SOL     MW 1708   1.106   1.532   0.766  0.0005 -0.0006 -0.0016
  428SOL     OW 1709   1.210   3.044   1.544  0.3949  0.0678  0.1489
  428SOL    HW1 1710   1.147   2.983   1.504 -2.0877  1.1687  2.1271
  428SOL    HW2 1711   1.221   3.112   1.478 -1.4696  0.4460  0.1570
  428SOL     MW 1712   1.203   3.045   1.530  0.0005 -0.0006 -0.0016
  429SOL     OW 1713   0.533   0.693   2.694  0.6741 -0.2833  0.0531
  429SOL    HW1 1714   0.591   0.763   2.664  0.4799 -0.4874 -0.8432
  429SOL    HW2 1715   0.455   0.701   2.638  0.8214 -1.4576 -0.3510
  429SOL     MW 1716   0.530   0.703   2.683  0.0005 -0.0006 -0.0016
  430SOL     OW 1717   1.391   1.132   2.953  0.5427 -0.7884  0.4207
  430SOL    HW1 1718   1.466   1.171   2.909  0.5053 -2.5578 -1.3439
  430SOL    HW2 1719   1.341   1.207   2.986  0.0891  0.8020 -3.3737
  430SOL     MW 1720   1.394   1.147   2.952  0.0005 -0.0006 -0.0016
  431SOL     OW 1721   2.111   1.291   1.321 -0.3373  0.4663  0.1189
  431SOL    HW1 1722   2.044   1.355   1.301  0.6963  1.1939 -1.1914
  431SOL    HW2 1723   2.141   1.314   1.409  0.7727  2.5282 -0.7350
  431SOL     MW 1724   2.107   1.302   1.330  0.0005 -0.0006 -0.0016
  432SOL     OW 1725   0.259   1.776   1.742  0.8911  0.7550 -0.3913
  432SOL    HW1 1726   0.211   1.718   1.683 -0.3483 -0.2058  1.4391
  432SOL    HW2 1727   0.193   1.838   1.774  1.3829  0.8755  0.4164
  432SOL     MW 1728   0.244   1.776   1.739  0.0005 -0.0006 -0.0016
  433SOL     OW 1729   1.107   0.494   2.646  0.2373  0.2215  0.1416
  433SOL    HW1 1730   1.163   0.460   2.576  0.8513 -2.1440  1.6630
  433SOL    HW2 1731   1.052   0.419   2.670 -0.0118  0.9909  2.1161
  433SOL     MW 1732   1.107   0.480   2.640  0.0005 -0.0006 -0.0016
  434SOL     OW 1733   1.796   2.087   2.468 -0.1268 -0.9700 -0.0197
  434SOL    HW1 1734   1.781   2.174   2.432 -1.1583 -1.8733 -1.8361
  434SOL    HW2 1735   1.814   2.032   2.393 -1.5547 -2.7688  0.8779
  434SOL     MW 1736   1.797   2.091   2.454  0.0005 -0.0006 -0.0016
  435SOL     OW 1737   2.498   1.995   0.409  0.3583  0.1124  0.0614
  435SOL    HW1 1738   2.540   2.077   0.382 -0.8698  1.1356  1.1272
  435SOL    HW2 1739   2.565   1.948   0.458  1.6292 -0.3568 -1.9993
  435SOL     MW 1740   2.512   1.999   0.412  0.0005 -0.0006 -0.0016
  436SOL     OW 1741   2.510   0.333   2.831  0.4715 -0.2213  0.1375
  436SOL    HW1 1742   2.584   0.351   2.888  0.1651 -0.2679  0.5564
  436SOL    HW2 1743   2.493   0.416   2.787  1.7849 -0.6151 -1.1789
  436SOL     MW 1744   2.517   0.346   2.833  0.0005 -0.0006 -0.0016
  437SOL     OW 1745   1.887   2.177   0.750  0.5126  0.4271  0.4468
  437SOL    HW1 1746   1.930   2.189   0.666  0.7950  1.2115  0.6904
  437SOL    HW2 1747   1.928   2.099   0.788  0.3092  0.0136 -0.1836
  437SOL     MW 1748   1.898   2.169   0.744  0.0005 -0.0006 -0.0016
  438SOL     OW 1749   2.814   1.771   2.415  0.1664  0.4029 -0.1132
  438SOL    HW1 1750   2.820   1.699   2.352  0.5584 -0.1346  0.5252
  438SOL    HW2 1751   2.735   1.818   2.390  0.1553  0.0242 -0.8229
  438SOL     MW 1752   2.805   1.767   2.404  0.0005 -0.0006 -0.0016
  439SOL     OW 1753   1.439   2.698   1.409 -0.5671  0.3575  0.0723
  439SOL    HW1 1754   1.358   2.648   1.406 -1.2415  1.2915  1.3358
  439SOL    HW2 1755   1.508   2.633   1.411 -1.2750 -0.4602 -1.0771
  439SOL     MW 1756   1.437   2.684   1.409  0.0005 -0.0006 -0.0016
  440SOL     OW 1757   1.680   0.216  -0.013  0.5243  0.0214 -0.0035
  440SOL    HW1 1758   1.640   0.264   0.060 -0.5097  1.2412 -1.3152
  440SOL    HW2 1759   1.774   0.221   0.004  0.3939  1.6943  0.4169
  440SOL     MW 1760   1.687   0.223  -0.001  0.0005 -0.0006 -0.0016
  441SOL     OW 1761   1.158   2.867   1.272 -0.4531 -0.0866  0.1401
  441SOL    HW1 1762   1.196   2.862   1.184 -1.4514 -1.5746 -0.2438
  441SOL    HW2 1763   1.223   2.823   1.327  0.2830  1.0504  0.2131
  441SOL     MW 1764   1.171   2.860   1.268  0.0005 -0.0006 -0.0016
  442SOL     OW 1765   2.511   1.392   0.502  0.0793 -0.2014  0.4382
  442SOL    HW1 1766   2.544   1.359   0.419  0.5786  0.3380  0.4185
  442SOL    HW2 1767   2.425   1.429   0.481  0.1042 -0.2745  0.2064
  442SOL     MW 1768   2.504   1.393   0.489  0.0005 -0.0006 -0.0016
  443SOL     OW 1769   0.986   1.363   0.937  0.3981  0.7179  0.5188
  443SOL    HW1 1770   1.036   1.427   0.887  0.5871  0.0925 -0.1087
  443SOL    HW2 1771   0.895   1.388   0.924  0.3662 -0.1112 -1.1351
  443SOL     MW 1772   0.981   1.374   0.929  0.0005 -0.0006 -0.0016
  444SOL     OW 1773   1.111   1.148   2.022  0.4211  0.0948 -0.3941
  444SOL    HW1 1774   1.028   1.195   2.027 -0.6204 -1.7803  1.2925
  444SOL    HW2 1775   1.152   1.163   2.107  0.2824 -1.5719  0.0013
  444SOL     MW 1776   1.106   1.156   2.034  0.0005 -0.0006 -0.0016
  445SOL     OW 1777   2.336   2.389   3.093  0.6052 -0.0510  0.3777
  445SOL    HW1 1778   2.292   2.305   3.084  1.8363 -0.7084  0.4204
  445SOL    HW2 1779   2.344   2.402   3.188  2.3843 -0.9598  0.3879
  445SOL     MW 1780   2.331   2.380   3.104  0.0005 -0.0006 -0.0016
  446SOL     OW 1781   1.036   0.607   1.536  0.2209 -0.0996 -0.1851
  446SOL    HW1 1782   1.110   0.656   1.501  0.7912 -1.0526 -0.3670
  446SOL    HW2 1783   0.998   0.664   1.602  2.0392 -0.1661  0.9970
  446SOL     MW 1784   1.041   0.621   1.540  0.0005 -0.0006 -0.0016
  447SOL     OW 1785   1.185   1.160   0.938 -0.1350 -0.1642  0.3100
  447SOL    HW1 1786   1.241   1.161   1.016  1.0374 -1.0891 -0.4895
  447SOL    HW2 1787   1.115   1.222   0.958  0.8911  0.6357  1.5510
  447SOL     MW 1788   1.183   1.168   0.950  0.0005 -0.0006 -0.0016
  448SOL     OW 1789   0.907   0.554   0.941 -0.1177  0.6497  0.1846
  448SOL    HW1 1790   0.866   0.591   1.020 -0.9474 -1.0933  0.6145
  448SOL    HW2 1791   0.895   0.621   0.874 -1.9635  0.9952  0.8130
  448SOL     MW 1792   0.900   0.567   0.943  0.0005 -0.0006 -0.0016
  449SOL     OW 1793   0.023   0.499   3.125 -0.4000  0.0257  0.3153
  449SOL    HW1 1794  -0.004   0.423   3.074  1.9032 -0.2185 -0.6977
  449SOL    HW2 1795  -0.024   0.573   3.086 -1.6938 -0.6861  0.4859
  449SOL     MW 1796   0.014   0.499   3.113  0.0005 -0.0006 -0.0016
  450SOL     OW 1797   1.224   2.099   1.452  0.0196 -0.0574  0.3063
  450SOL    HW1 1798   1.192   2.178   1.495  0.8572  0.0945  0.6789
  450SOL    HW2 1799   1.168   2.088   1.375 -0.8902  0.2006  0.9254
  450SOL     MW 1800   1.213   2.107   1.448  0.0005 -0.0006 -0.0016
  451SOL     OW 1801   1.554   2.895   2.359  0.3183  0.2037 -0.7951
  451SOL    HW1 1802   1.569   2.939   2.276  0.0231  0.5727 -0.6556
  451SOL    HW2 1803   1.474   2.935   2.394  0.0504 -0.4346 -0.6622
  451SOL     MW 1804   1.545   2.906   2.353  0.0005 -0.0006 -0.0016
  452SOL     OW 1805   1.923   2.189   1.160 -0.1368 -0.2354 -0.0249
  452SOL    HW1 1806   1.844   2.228   1.197 -1.4149 -0.9499 -1.8543
  452SOL    HW2 1807   1.940   2.240   1.081  0.6304 -0.7479 -0.2049
  452SOL     MW 1808   1.915   2.201   1.155  0.0005 -0.0006 -0.0016
  453SOL     OW 1809   0.744   1.226   0.648 -0.3543 -0.1182 -0.1494
  453SOL    HW1 1810   0.767   1.317   0.631  0.7729 -0.1005  1.2752
  453SOL    HW2 1811   0.784   1.206   0.733  0.8344 -2.4198 -1.1432
  453SOL     MW 1812   0.752   1.235   0.657  0.0005 -0.0006 -0.0016
  454SOL     OW 1813   2.914   0.705   2.582 -0.0578  0.6224  0.2287
  454SOL    HW1 1814   2.976   0.659   2.525 -0.7195 -0.2592  0.1931
  454SOL    HW2 1815   2.829   0.692   2.540 -0.7936 -1.3170  2.1343
  454SOL     MW 1816   2.911   0.698   2.570  0.0005 -0.0006 -0.0016
  455SOL     OW 1817   2.642   0.066   2.244  0.4621 -0.2531 -0.6388
  455SOL    HW1 1818   2.690  -0.013   2.219  0.3380 -1.4391  2.4290
  455SOL    HW2 1819   2.609   0.047   2.332 -2.2519  2.0565 -1.0064
  455SOL     MW 1820   2.644   0.054   2.252  0.0005 -0.0006 -0.0016
  456SOL     OW 1821   3.131   0.069   1.544  0.1945  0.5498 -0.2633
  456SOL    HW1 1822   3.150   0.102   1.631  2.3551 -1.5337  0.1701
  456SOL    HW2 1823   3.040   0.094   1.527 -0.5518  0.3683  2.8909
  456SOL     MW 1824   3.122   0.076   1.553  0.0005 -0.0006 -0.0016
  457SOL     OW 1825   2.613   1.738   1.008 -0.6588  0.3360 -0.4084
  457SOL    HW1 1826   2.674   1.776   0.945  1.1164  2.3692  2.3083
  457SOL    HW2 1827   2.663   1.670   1.053 -0.4748  1.5946  1.4205
  457SOL     MW 1828   2.627   1.734   1.006  0.0005 -0.0006 -0.0016
  458SOL     OW 1829   2.562   0.872   1.452  0.3942  0.1695  0.2355
  458SOL    HW1 1830   2.508   0.881   1.374  0.4339  2.6036  0.4066
  458SOL    HW2 1831   2.607   0.956   1.461  0.8811 -0.2429  2.5158
  458SOL     MW 1832   2.561   0.884   1.443  0.0005 -0.0006 -0.0016
  459SOL     OW 1833   0.274   2.522   2.839  0.2645  0.1262  0.4063
  459SOL    HW1 1834   0.207   2.491   2.900 -2.0042  1.1721 -1.4099
  459SOL    HW2 1835   0.285   2.451   2.777  1.2945 -0.2577  1.0073
  459SOL     MW 1836   0.267   2.509   2.839  0.0005 -0.0006 -0.0016
  460SOL     OW 1837   0.120   1.815   1.030 -0.7264  0.4140 -0.2337
  460SOL    HW1 1838   0.059   1.888   1.019 -2.2100 -0.6304  0.8159
  460SOL    HW2 1839   0.080   1.742   0.982  0.8719  0.3136 -1.5104
  460SOL     MW 1840   0.107   1.815   1.022  0.0005 -0.0006 -0.0016
  461SOL     OW 1841   1.806   1.301   2.794  0.5155 -0.3093  0.2055
  461SOL    HW1 1842   1.714   1.277   2.803  0.8813 -1.2634  1.8444
  461SOL    HW2 1843   1.812   1.389   2.830 -0.0389  0.5374 -1.6374
  461SOL     MW 1844   1.795   1.309   2.799  0.0005 -0.0006 -0.0016
  462SOL     OW 1845   1.263   1.784   0.469  0.4862  0.0712  0.4303
  462SOL    HW1 1846   1.305   1.837   0.401  2.1287 -1.4619  0.1776
  462SOL    HW2 1847   1.227   1.848   0.531  2.8121  1.5287  0.3992
  462SOL     MW 1848   1.264   1.799   0.469  0.0005 -0.0006 -0.0016
  463SOL     OW 1849   2.147   1.626   1.367 -1.1365  0.1827 -0.0515
  463SOL    HW1 1850   2.195   1.569   1.307 -1.3470 -0.2720  0.2016
  463SOL    HW2 1851   2.114   1.697   1.312 -0.7001  0.1660 -0.3358
  463SOL     MW 1852   2.149   1.628   1.352  0.0005 -0.0006 -0.0016
  464SOL     OW 1853   2.142   1.921   1.733 -0.4052 -0.1751  0.4248
  464SOL    HW1 1854   2.185   1.886   1.655  0.2565  1.8655 -0.1945
  464SOL    HW2 1855   2.063   1.868   1.742  0.0234 -1.1362 -1.0254
  464SOL     MW 1856   2.137   1.910   1.724  0.0005 -0.0006 -0.0016
  465SOL     OW 1857   1.196   1.979   0.649 -0.3713 -0.2132 -0.2774
  465SOL    HW1 1858   1.259   2.049   0.666  0.5487 -1.2399  0.6051
  465SOL    HW2 1859   1.134   2.018   0.587 -0.2606  1.5966  0.6910
  465SOL     MW 1860   1.196   1.993   0.643  0.0005 -0.0006 -0.0016
  466SOL     OW 1861   0.871   3.088   2.131 -0.5933 -0.1127 -0.6169
  466SOL    HW1 1862   0.963   3.086   2.103 -1.0002 -0.7727 -2.0058
  466SOL    HW2 1863   0.855   3.002   2.170 -0.2003  0.5844  1.1413
  466SOL     MW 1864   0.881   3.077   2.132  0.0005 -0.0006 -0.0016
  467SOL     OW 1865   1.453   2.395   2.561  0.8710  0.1965 -0.5454
  467SOL    HW1 1866   1.523   2.418   2.622  0.1484 -0.1788  0.4590
  467SOL    HW2 1867   1.404   2.477   2.550  0.1669 -0.0500  0.5320
  467SOL     MW 1868   1.456   2.409   2.568  0.0005 -0.0006 -0.0016
  468SOL     OW 1869   0.154   2.709   0.545 -0.1816 -0.4000  0.1707
  468SOL    HW1 1870   0.068   2.715   0.586 -0.1262  1.1074  0.1177
  468SOL    HW2 1871   0.161   2.617   0.519 -0.6964 -1.1373  2.4253
  468SOL     MW 1872   0.144   2.698   0.547  0.0005 -0.0006 -0.0016
  469SOL     OW 1873   0.878   1.674   0.118  0.9809  0.3674  0.4778
  469SOL    HW1 1874   0.972   1.675   0.137  1.2002  1.3457 -0.5328
  469SOL    HW2 1875   0.848   1.762   0.141  0.1527 -0.1399  1.4419
  469SOL     MW 1876   0.886   1.686   0.123  0.0005 -0.0006 -0.0016
  470SOL     OW 1877   1.432   2.311   2.184 -0.0472 -0.1768  0.4447
  470SOL    HW1 1878   1.344   2.347   2.194 -0.6000 -1.5976  0.9154
  470SOL    HW2 1879   1.429   2.262   2.102  0.3346 -0.1923  0.4344
  470SOL     MW 1880   1.421   2.310   2.175  0.0005 -0.0006 -0.0016
  471SOL     OW 1881   0.511   1.612   0.454 -0.2445  0.7451  0.6979
  471SOL    HW1 1882   0.490   1.528   0.497  1.6129 -1.7675 -2.7709
  471SOL    HW2 1883   0.596   1.636   0.491  2.0113 -2.1192 -2.0662
  471SOL     MW 1884   0.520   1.604   0.465  0.0005 -0.0006 -0.0016
  472SOL     OW 1885   1.176   1.903   0.180  0.5153  0.6354  0.6771
  472SOL    HW1 1886   1.264   1.924   0.210 -0.2400  1.5997  2.3728
  472SOL    HW2 1887   1.121   1.912   0.258 -1.1265  0.2411 -0.3718
  472SOL     MW 1888   1.180   1.907   0.194  0.0005 -0.0006 -0.0016
  473SOL     OW 1889   1.104   0.359   2.937  0.1050  0.2582 -1.0500
  473SOL    HW1 1890   1.094   0.286   2.876  0.5189  1.1078 -2.1621
  473SOL    HW2 1891   1.179   0.408   2.904  2.0075 -0.6419  1.6158
  473SOL     MW 1892   1.112   0.356   2.925  0.0005 -0.0006 -0.0016
  474SOL     OW 1893   0.412   0.642   1.746  0.5592 -0.7069 -0.2574
  474SOL    HW1 1894   0.326   0.612   1.715  0.6131 -2.1078  0.8540
  474SOL    HW2 1895   0.400   0.736   1.761 -1.2446 -1.1206  1.2814
  474SOL     MW 1896   0.400   0.650   1.744  0.0005 -0.0006 -0.0016
  475SOL     OW 1897   0.848   0.372   2.296  0.1802  0.2956  0.0845
  475SOL    HW1 1898   0.857   0.442   2.360  1.4446 -0.8092  1.1797
  475SOL    HW2 1899   0.843   0.417   2.212  0.9642  1.7072  0.7509
  475SOL     MW 1900   0.849   0.386   2.293  0.0005 -0.0006 -0.0016
  476SOL     OW 1901  -0.011   0.585   1.727 -0.5675 -0.5014  0.2273
  476SOL    HW1 1902   0.077   0.548   1.719 -0.9565 -1.6966  1.0470
  476SOL    HW2 1903  -0.001   0.657   1.789 -0.1113 -0.4177  0.0626
  476SOL     MW 1904   0.002   0.589   1.734  0.0005 -0.0006 -0.0016
  477SOL     OW 1905   2.358   0.969   0.285  0.0186  0.3055 -0.1239
  477SOL    HW1 1906   2.444   1.010   0.287 -0.7791  2.0887 -1.0177
  477SOL    HW2 1907   2.309   1.013   0.354 -0.1812 -0.7562  0.4332
  477SOL     MW 1908   2.363   0.980   0.294  0.0005 -0.0006 -0.0016
  478SOL     OW 1909   0.095   2.295   1.973  0.8014 -0.1004  0.1709
  478SOL    HW1 1910   0.021   2.266   1.920  0.3626  0.4584  0.4828
  478SOL    HW2 1911   0.149   2.346   1.912 -0.4010  1.7264  0.5646
  478SOL     MW 1912   0.093   2.298   1.958  0.0005 -0.0006 -0.0016
  479SOL     OW 1913   2.845   0.079   1.526  0.0156  0.2896  0.6934
  479SOL    HW1 1914   2.827   0.044   1.613  0.7516  1.5179  1.3480
  479SOL    HW2 1915   2.773   0.141   1.510 -1.3236 -1.4412 -0.4942
  479SOL     MW 1916   2.833   0.082   1.535  0.0005 -0.0006 -0.0016
  480SOL     OW 1917   2.991   3.115   0.843 -0.1797 -0.1520 -1.2037
  480SOL    HW1 1918   2.981   3.192   0.787  0.6032  0.4915 -0.4963
  480SOL    HW2 1919   2.935   3.049   0.803 -0.7186  0.7192 -1.9467
  480SOL     MW 1920   2.983   3.117   0.831  0.0005 -0.0006 -0.0016
  481SOL     OW 1921   2.732   2.360   0.936 -0.1638 -0.6751 -0.3222
  481SOL    HW1 1922   2.678   2.427   0.895  2.0892  0.5030 -1.5409
  481SOL    HW2 1923   2.755   2.300   0.865  1.1132 -0.4616 -0.1166
  481SOL     MW 1924   2.728   2.361   0.922  0.0005 -0.0006 -0.0016
  482SOL     OW 1925   1.103   0.331   1.001  0.1078  0.0225 -0.7253
  482SOL    HW1 1926   1.098   0.254   1.057  1.3539  0.4420 -0.0101
  482SOL    HW2 1927   1.013   0.364   0.997  0.1400  0.6135  1.9288
  482SOL     MW 1928   1.091   0.326   1.007  0.0005 -0.0006 -0.0016
  483SOL     OW 1929   2.902   0.283   2.561 -0.3433 -0.0683 -0.1041
  483SOL    HW1 1930   2.910   0.329   2.478 -0.6170 -0.0473 -0.1211
  483SOL    HW2 1931   2.813   0.303   2.591 -1.1703 -2.0617 -1.0168
  483SOL     MW 1932   2.891   0.291   2.554  0.0005 -0.0006 -0.0016
  484SOL     OW 1933   2.922   1.501   1.709 -0.3151 -0.7290  0.0258
  484SOL    HW1 1934   2.865   1.569   1.744 -0.7151 -1.4300  0.7577
  484SOL    HW2 1935   2.920   1.515   1.614 -1.6907 -0.7283  0.0418
  484SOL     MW 1936   2.915   1.512   1.701  0.0005 -0.0006 -0.0016
  485SOL     OW 1937   0.127   2.005   1.424 -0.2165 -0.1729  0.2377
  485SOL    HW1 1938   0.063   2.025   1.493 -1.0992  1.0506 -0.8946
  485SOL    HW2 1939   0.117   1.911   1.409 -0.6563 -0.2815  1.1460
  485SOL     MW 1940   0.117   1.995   1.431  0.0005 -0.0006 -0.0016
  486SOL     OW 1941   2.295   0.551   1.980 -0.3467  0.2250  0.3743
  486SOL    HW1 1942   2.294   0.455   1.971  0.3755  0.2215  0.3129
  486SOL    HW2 1943   2.362   0.580   1.920 -0.1447  0.7279  0.8370
  486SOL     MW 1944   2.303   0.542   1.971  0.0005 -0.0006 -0.0016
  487SOL     OW 1945   0.427   2.202   1.735 -0.2912 -0.2487  0.5552
  487SOL    HW1 1946   0.518   2.226   1.717 -0.4172 -1.0696 -1.3420
  487SOL    HW2 1947   0.387   2.284   1.766  0.8616  0.3438  0.5544
  487SOL     MW 1948   0.434   2.216   1.737  0.0005 -0.0006 -0.0016
  488SOL     OW 1949   1.870   0.822   0.731  0.3920 -0.1940 -0.5359
  488SOL    HW1 1950   1.810   0.811   0.657  0.7565 -0.2354 -0.8246
  488SOL    HW2 1951   1.814   0.812   0.808 -0.0560  0.2170 -0.8047
  488SOL     MW 1952   1.855   0.819   0.731  0.0005 -0.0006 -0.0016
  489SOL     OW 1953   1.793   2.861   0.482  0.6335 -0.3550 -0.3598
  489SOL    HW1 1954   1.771   2.769   0.497 -0.7667  0.1368  0.8119
  489SOL    HW2 1955   1.729   2.890   0.417  0.7985 -0.0957 -0.4056
  489SOL     MW 1956   1.782   2.853   0.476  0.0005 -0.0006 -0.0016
  490SOL     OW 1957   0.807   1.210   1.265 -0.3728 -0.1055 -0.1016
  490SOL    HW1 1958   0.760   1.184   1.344  0.0419  1.7330  0.7831
  490SOL    HW2 1959   0.738   1.231   1.202 -0.7598 -3.4379 -1.0119
  490SOL     MW 1960   0.792   1.209   1.267  0.0005 -0.0006 -0.0016
  491SOL     OW 1961   1.805   0.384   2.362  0.2610  0.0043 -0.0672
  491SOL    HW1 1962   1.750   0.308   2.380 -1.2684  1.5070  2.0076
  491SOL    HW2 1963   1.895   0.351   2.369 -0.2218 -2.3757 -2.9583
  491SOL     MW 1964   1.810   0.370   2.365  0.0005 -0.0006 -0.0016
  492SOL     OW 1965   1.316   1.274   2.560  0.0169  0.1318 -0.4449
  492SOL    HW1 1966   1.336   1.195   2.610  0.3121  0.2377 -0.3899
  492SOL    HW2 1967   1.234   1.306   2.596  1.2764  1.4071  1.4965
  492SOL     MW 1968   1.308   1.268   2.571  0.0005 -0.0006 -0.0016
  493SOL     OW 1969   2.762   3.055   1.288  0.3565 -0.5124  0.3941
  493SOL    HW1 1970   2.834   3.058   1.225  1.2245  2.6914  1.3545
  493SOL    HW2 1971   2.789   3.114   1.358 -3.0522  0.5593  0.9967
  493SOL     MW 1972   2.775   3.063   1.289  0.0005 -0.0006 -0.0016
  494SOL     OW 1973   1.779   2.679   1.705  0.9637  0.3610  0.2517
  494SOL    HW1 1974   1.754   2.644   1.619  1.2666 -0.2757  0.4227
  494SOL    HW2 1975   1.786   2.774   1.690  1.3655  0.2194 -0.5139
  494SOL     MW 1976   1.776   2.687   1.692  0.0005 -0.0006 -0.0016
  495SOL     OW 1977   0.581   2.235   1.333 -0.3809  0.0647  0.2476
  495SOL    HW1 1978   0.539   2.188   1.405  2.5913 -0.4738  1.7754
  495SOL    HW2 1979   0.514   2.297   1.303 -1.5546  0.8447  3.9676
  495SOL     MW 1980   0.567   2.237   1.338  0.0005 -0.0006 -0.0016
  496SOL     OW 1981   0.632   0.298   2.547 -0.0549 -0.2151 -0.5863
  496SOL    HW1 1982   0.628   0.245   2.468  1.8159 -0.5076 -0.5460
  496SOL    HW2 1983   0.640   0.388   2.516 -3.1269  0.1122 -0.6554
  496SOL     MW 1984   0.633   0.302   2.533  0.0005 -0.0006 -0.0016
  497SOL     OW 1985   0.794   0.121   2.348 -0.0635  0.6080  0.5801
  497SOL    HW1 1986   0.832   0.208   2.337 -0.1697  0.4938 -0.8683
  497SOL    HW2 1987   0.821   0.072   2.271 -1.9925  0.1055  0.1663
  497SOL     MW 1988   0.802   0.126   2.337  0.0005 -0.0006 -0.0016
  498SOL     OW 1989   0.545   1.496   3.006 -0.5406 -0.0496  0.4420
  498SOL    HW1 1990   0.630   1.503   2.964 -0.3298  1.3549  1.0653
  498SOL    HW2 1991   0.564   1.469   3.095 -0.7764 -0.1452  0.4650
  498SOL     MW 1992   0.558   1.493   3.012  0.0005 -0.0006 -0.0016
  499SOL     OW 1993   2.284   1.831   3.022  0.2183  0.2734  0.3618
  499SOL    HW1 1994   2.376   1.851   3.003  0.6833 -1.5404  0.5691
  499SOL    HW2 1995   2.245   1.813   2.937  0.1605  0.5592  0.3247
  499SOL     MW 1996   2.291   1.831   3.009  0.0005 -0.0006 -0.0016
  500SOL     OW 1997   1.796   1.339   0.048 -0.5077 -0.2384 -0.4554
  500SOL    HW1 1998   1.823   1.247   0.052 -0.9584 -0.3392  0.7290
  500SOL    HW2 1999   1.877   1.387   0.030 -0.3722 -0.8994 -1.7328
  500SOL     MW 2000   1.810   1.333   0.047  0.0005 -0.0006 -0.0016
  501SOL     OW 2001   2.985   0.680   2.115 -1.0287  0.2030 -0.3411
  501SOL    HW1 2002   3.039   0.755   2.139 -2.2458  0.9893  0.0450
  501SOL    HW2 2003   2.995   0.673   2.020  1.8372 -1.3691 -0.0443
  501SOL     MW 2004   2.993   0.688   2.106  0.0005 -0.0006 -0.0016
  502SOL     OW 2005   1.316   1.213   0.709 -1.2291  0.3061  0.3008
  502SOL    HW1 2006   1.276   1.207   0.796 -3.2169  1.9170 -0.4307
  502SOL    HW2 2007   1.356   1.300   0.707  1.6525 -0.8860  0.6479
  502SOL     MW 2008   1.316   1.223   0.720  0.0005 -0.0006 -0.0016
  503SOL     OW 2009   0.895   1.904   2.153 -0.1345 -0.2744 -0.3063
  503SOL    HW1 2010   0.860   1.869   2.071 -0.2823 -0.8885  0.0168
  503SOL    HW2 2011   0.829   1.967   2.182 -1.0834 -1.5509  0.3886
  503SOL     MW 2012   0.882   1.908   2.146  0.0005 -0.0006 -0.0016
  504SOL     OW 2013   1.810   1.549   2.909  0.0980 -0.0696  0.3063
  504SOL    HW1 2014   1.721   1.562   2.941  0.7734  0.7903  1.9392
  504SOL    HW2 2015   1.817   1.605   2.832  0.0566  2.1210  1.8137
  504SOL     MW 2016   1.800   1.558   2.903  0.0005 -0.0006 -0.0016
  505SOL     OW 2017   0.554   0.422   1.245 -0.2905  0.4316  0.4266
  505SOL    HW1 2018   0.465   0.416   1.209  0.5587  0.2030 -1.7186
  505SOL    HW2 2019   0.595   0.339   1.222  0.7469  0.8706  0.6657
  505SOL     MW 2020   0.548   0.411   1.238  0.0005 -0.0006 -0.0016
  506SOL     OW 2021   1.513   1.564   2.201 -0.1132  1.0172 -0.1087
  506SOL    HW1 2022   1.540   1.650   2.170  2.7427 -0.2295 -1.4456
  506SOL    HW2 2023   1.472   1.580   2.286  2.8855  3.4487  1.0519
  506SOL     MW 2024   1.511   1.577   2.208  0.0005 -0.0006 -0.0016
  507SOL     OW 2025   3.038   1.383   1.436  0.0061 -0.3855  0.4673
  507SOL    HW1 2026   3.010   1.315   1.498  0.9286 -0.2145  1.1001
  507SOL    HW2 2027   3.116   1.347   1.395 -1.5674 -1.2490 -1.9599
  507SOL     MW 2028   3.044   1.370   1.439  0.0005 -0.0006 -0.0016
  508SOL     OW 2029   2.154   1.723   2.810 -0.2233  0.2342 -0.3683
  508SOL    HW1 2030   2.128   1.654   2.872 -1.0615  0.6305 -0.2665
  508SOL    HW2 2031   2.187   1.675   2.734 -0.4097 -0.2771 -0.1316
  508SOL     MW 2032   2.155   1.708   2.808  0.0005 -0.0006 -0.0016
  509SOL     OW 2033   1.705   1.252   2.516 -0.0850  0.2730 -0.1950
  509SOL    HW1 2034   1.729   1.273   2.606 -0.4203  0.3671 -0.1261
  509SOL    HW2 2035   1.718   1.157   2.509 -0.7439  0.1477  0.1696
  509SOL     MW 2036   1.709   1.242   2.527  0.0005 -0.0006 -0.0016
  510SOL     OW 2037   0.695   0.890   1.826  0.2396 -0.3966 -0.2613
  510SOL    HW1 2038   0.705   0.832   1.750  0.3179 -1.0675  0.2513
  510SOL    HW2 2039   0.761   0.958   1.812  1.8671 -1.7596  0.3180
  510SOL     MW 2040   0.705   0.891   1.815  0.0005 -0.0006 -0.0016
  511SOL     OW 2041   1.571   2.406   0.472  0.0292 -0.0349  0.0831
  511SOL    HW1 2042   1.645   2.464   0.485 -0.8767  1.1843 -0.0204
  511SOL    HW2 2043   1.603   2.319   0.497  1.6630  0.3478 -0.5732
  511SOL     MW 2044   1.584   2.402   0.477  0.0005 -0.0006 -0.0016
  512SOL     OW 2045   0.255   1.192   3.023  0.9173  0.7565  0.4828
  512SOL    HW1 2046   0.196   1.117   3.011  0.8558  0.7181  1.0036
  512SOL    HW2 2047   0.299   1.202   2.938  0.3347  0.6366  0.1625
  512SOL     MW 2048   0.253   1.183   3.010  0.0005 -0.0006 -0.0016
  513SOL     OW 2049   2.817   0.459   2.141 -0.7185 -0.1551  0.2901
  513SOL    HW1 2050   2.798   0.436   2.050  0.6295 -1.0936  0.2113
  513SOL    HW2 2051   2.869   0.539   2.135 -0.5853 -0.2454  0.2308
  513SOL     MW 2052   2.821   0.466   2.128  0.0005 -0.0006 -0.0016
  514SOL     OW 2053   1.111   1.322   1.479  0.4277  0.1634 -0.0150
  514SOL    HW1 2054   1.083   1.337   1.389  2.0291  0.0659 -0.5526
  514SOL    HW2 2055   1.073   1.396   1.528  1.0542  1.2548 -1.1080
  514SOL     MW 2056   1.103   1.334   1.474  0.0005 -0.0006 -0.0016
  515SOL     OW 2057   2.212   1.099   0.485 -0.3792 -0.8119 -0.5311
  515SOL    HW1 2058   2.133   1.108   0.432 -1.3777 -3.9609  0.2149
  515SOL    HW2 2059   2.236   1.189   0.507 -4.1504  0.3058 -0.2226
  515SOL     MW 2060   2.205   1.112   0.481  0.0005 -0.0006 -0.0016
  516SOL     OW 2061   1.338   1.158   1.447 -0.4576  0.0746  0.2206
  516SOL    HW1 2062   1.253   1.201   1.440 -0.0366  0.8560 -0.1870
  516SOL    HW2 2063   1.363   1.171   1.539  0.9229  3.2052 -0.4885
  516SOL     MW 2064   1.330   1.165   1.458  0.0005 -0.0006 -0.0016
  517SOL     OW 2065   1.149   2.721   0.332 -0.7616 -0.5731  0.8413
  517SOL    HW1 2066   1.239   2.750   0.347 -0.4953 -0.2527 -1.1934
  517SOL    HW2 2067   1.101   2.755   0.408  0.3178  1.6412  0.6145
  517SOL     MW 2068   1.155   2.729   0.344  0.0005 -0.0006 -0.0016
  518SOL     OW 2069   1.690   1.046   1.726 -0.3912 -0.0608  0.4771
  518SOL    HW1 2070   1.756   1.113   1.743  0.1121 -0.4816  0.2062
  518SOL    HW2 2071   1.722   0.998   1.650 -0.1718 -1.3196  1.3174
  518SOL     MW 2072   1.702   1.048   1.719  0.0005 -0.0006 -0.0016
  519SOL     OW 2073   0.343   2.689   2.604  0.0543 -0.0781 -0.2187
  519SOL    HW1 2074   0.312   2.641   2.680 -2.5068  1.4893 -0.1499
  519SOL    HW2 2075   0.368   2.775   2.639 -1.9739  0.9691 -1.1434
  519SOL     MW 2076   0.342   2.694   2.618  0.0005 -0.0006 -0.0016
  520SOL     OW 2077   2.559   1.350   1.269  0.4978  0.0976  0.3102
  520SOL    HW1 2078   2.532   1.424   1.323  0.7133 -1.5588  2.8689
  520SOL    HW2 2079   2.478   1.304   1.248  0.3474  1.0905 -1.4112
  520SOL     MW 2080   2.546   1.353   1.273  0.0005 -0.0006 -0.0016
  521SOL     OW 2081   1.915   1.764   1.763 -0.4017  0.1157 -0.3853
  521SOL    HW1 2082   1.879   1.778   1.851  0.9020 -0.6287  0.3083
  521SOL    HW2 2083   1.853   1.706   1.720 -1.5637  1.2629 -0.3386
  521SOL     MW 2084   1.903   1.759   1.769  0.0005 -0.0006 -0.0016
  522SOL     OW 2085   2.576   2.272   2.347  0.0211  0.4480  0.2757
  522SOL    HW1 2086   2.627   2.240   2.273 -0.5965  1.3603 -0.5543
  522SOL    HW2 2087   2.524   2.196   2.375 -0.2348  0.2845 -0.6359
  522SOL     MW 2088   2.576   2.258   2.341  0.0005 -0.0006 -0.0016
  523SOL     OW 2089   0.615   1.334   1.105  0.0317 -0.2320  0.3348
  523SOL    HW1 2090   0.578   1.267   1.049  2.2473  0.7736 -2.5994
  523SOL    HW2 2091   0.539   1.374   1.149 -1.7422 -1.6693 -1.2643
  523SOL     MW 2092   0.601   1.331   1.103  0.0005 -0.0006 -0.0016
  524SOL     OW 2093   0.628   0.902   1.066  0.5115 -0.0960 -0.2275
  524SOL    HW1 2094   0.684   0.845   1.119  1.3837  1.8395  1.0283
  524SOL    HW2 2095   0.689   0.958   1.018 -0.3028  1.2269  0.2160
  524SOL     MW 2096   0.643   0.902   1.067  0.0005 -0.0006 -0.0016
  525SOL     OW 2097   2.692   1.270   1.968 -1.1657 -0.1275  0.3452
  525SOL    HW1 2098   2.612   1.297   1.923 -1.0562  0.0295  0.2414
  525SOL    HW2 2099   2.681   1.298   2.058 -0.1179  2.3303 -0.2089
  525SOL     MW 2100   2.680   1.277   1.974  0.0005 -0.0006 -0.0016
  526SOL     OW 2101   2.465   1.060   2.801  0.3419  1.4120  0.5679
  526SOL    HW1 2102   2.387   1.051   2.856  0.3178  0.5388  0.3970
  526SOL    HW2 2103   2.538   1.036   2.859  0.4454  1.7832  0.5953
  526SOL     MW 2104   2.464   1.056   2.816  0.0005 -0.0006 -0.0016
  527SOL     OW 2105   1.890   0.894   3.087 -0.0139  0.7737 -0.9171
  527SOL    HW1 2106   1.852   0.966   3.137 -1.0300  0.3520 -1.0549
  527SOL    HW2 2107   1.947   0.849   3.150  0.0087  1.2278 -0.6079
  527SOL     MW 2108   1.892   0.898   3.102  0.0005 -0.0006 -0.0016
  528SOL     OW 2109   2.530   0.845   2.654  0.7862 -1.1781 -0.1517
  528SOL    HW1 2110   2.453   0.836   2.597  1.7885  0.2042 -1.8142
  528SOL    HW2 2111   2.514   0.926   2.703  1.1512 -0.9016 -0.4820
  528SOL     MW 2112   2.518   0.854   2.653  0.0005 -0.0006 -0.0016
  529SOL     OW 2113   1.693   2.764   0.985 -0.4951  0.0595  0.1797
  529SOL    HW1 2114   1.744   2.839   0.955  0.8791 -1.3609 -1.2365
  529SOL    HW2 2115   1.725   2.748   1.073  1.5533 -0.7593 -0.6551
  529SOL     MW 2116   1.703   2.772   0.992  0.0005 -0.0006 -0.0016
  530SOL     OW 2117   2.411   2.664   2.095 -0.2271 -0.7459 -0.5508
  530SOL    HW1 2118   2.400   2.617   2.178  0.9649 -0.6723 -0.3343
  530SOL    HW2 2119   2.494   2.710   2.105 -1.0048  0.8387 -1.0439
  530SOL     MW 2120   2.420   2.663   2.107  0.0005 -0.0006 -0.0016
  531SOL     OW 2121   2.795   1.832   0.837  0.1076  0.2326 -0.1645
  531SOL    HW1 2122   2.886   1.802   0.834 -0.0198 -0.0994 -1.6503
  531SOL    HW2 2123   2.778   1.868   0.750 -1.3107 -0.1220 -0.0697
  531SOL     MW 2124   2.804   1.832   0.826  0.0005 -0.0006 -0.0016
  532SOL     OW 2125   1.019   2.110   1.853  0.0273  0.2872  0.4936
  532SOL    HW1 2126   0.996   2.203   1.850  1.2697  0.5784 -0.4077
  532SOL    HW2 2127   0.997   2.076   1.767  0.5026 -0.0209  0.4864
  532SOL     MW 2128   1.013   2.117   1.842  0.0005 -0.0006 -0.0016
  533SOL     OW 2129   0.739   0.613   0.035 -0.0868 -0.4159  0.3566
  533SOL    HW1 2130   0.821   0.596   0.083  1.3458  0.2585 -1.6926
  533SOL    HW2 2131   0.735   0.708   0.029 -0.9775 -0.4504  0.3169
  533SOL     MW 2132   0.749   0.623   0.041  0.0005 -0.0006 -0.0016
  534SOL     OW 2133   0.472   3.051   1.004  0.4612  0.5502  0.0746
  534SOL    HW1 2134   0.381   3.079   1.000 -0.1592 -1.4067 -0.7791
  534SOL    HW2 2135   0.489   3.033   1.096  0.3787  2.0457  0.4008
  534SOL     MW 2136   0.463   3.052   1.015  0.0005 -0.0006 -0.0016
  535SOL     OW 2137   1.286   2.836   0.857  0.6470  0.0861  0.5455
  535SOL    HW1 2138   1.339   2.847   0.936  2.3025 -0.5535 -0.4409
  535SOL    HW2 2139   1.335   2.774   0.803 -1.5432 -1.2448 -0.0513
  535SOL     MW 2140   1.299   2.829   0.860  0.0005 -0.0006 -0.0016
  536SOL     OW 2141   1.912   2.534   0.275  0.1792 -0.0434 -0.2122
  536SOL    HW1 2142   1.869   2.585   0.205  1.8422 -0.5413 -1.6699
  536SOL    HW2 2143   1.869   2.448   0.271  1.7154 -0.7988 -2.1991
  536SOL     MW 2144   1.901   2.529   0.265  0.0005 -0.0006 -0.0016
  537SOL     OW 2145   0.777  -0.001   0.664  0.8891  0.2263  0.3542
  537SOL    HW1 2146   0.868   0.011   0.692  0.3355  0.2237  2.3263
  537SOL    HW2 2147   0.725   0.020   0.742 -0.7536 -0.9399 -0.3637
  537SOL     MW 2148   0.782   0.003   0.678  0.0005 -0.0006 -0.0016
  538SOL     OW 2149   0.800   0.346   0.796  0.6973  0.3355  0.3585
  538SOL    HW1 2150   0.830   0.404   0.866  0.1823 -1.3560  2.0467
  538SOL    HW2 2151   0.721   0.389   0.762  0.5299  0.8041  1.3220
  538SOL     MW 2152   0.793   0.359   0.800  0.0005 -0.0006 -0.0016
  539SOL     OW 2153   0.477   2.933   0.423  0.5233 -0.1990 -0.4651
  539SOL    HW1 2154   0.460   2.997   0.492  0.9697  0.6189 -1.0837
  539SOL    HW2 2155   0.405   2.945   0.361  1.0609  0.3341 -1.0096
  539SOL     MW 2156   0.466   2.943   0.424  0.0005 -0.0006 -0.0016
  540SOL     OW 2157   1.749   0.719   0.518  0.4525 -0.7182 -0.5883
  540SOL    HW1 2158   1.837   0.694   0.489  0.6391 -2.0820  0.9983
  540SOL    HW2 2159   1.693   0.647   0.487 -0.1616  0.1905 -1.6759
  540SOL     MW 2160   1.753   0.707   0.510  0.0005 -0.0006 -0.0016
  541SOL     OW 2161   2.707   0.097   1.911  0.3727  0.4209 -0.2854
  541SOL    HW1 2162   2.773   0.030   1.892 -1.8760 -1.7866 -0.7003
  541SOL    HW2 2163   2.642   0.053   1.966 -0.8134  2.5039  0.1012
  541SOL     MW 2164   2.707   0.083   1.916  0.0005 -0.0006 -0.0016
  542SOL     OW 2165   1.415   2.160   0.334 -0.0102 -0.0556  0.2529
  542SOL    HW1 2166   1.341   2.219   0.322  1.2774  2.0619  1.9734
  542SOL    HW2 2167   1.482   2.193   0.273 -0.6011 -2.3711 -1.8007
  542SOL     MW 2168   1.414   2.172   0.325  0.0005 -0.0006 -0.0016
  543SOL     OW 2169   1.295   1.347   3.055 -0.4892  0.1616  0.3525
  543SOL    HW1 2170   1.212   1.318   3.094 -0.7821 -0.0036 -0.3893
  543SOL    HW2 2171   1.270   1.411   2.990 -0.0057  0.3191  0.3194
  543SOL     MW 2172   1.282   1.351   3.052  0.0005 -0.0006 -0.0016
  544SOL     OW 2173   0.696   0.681   0.502 -0.0068 -0.7628 -0.1448
  544SOL    HW1 2174   0.726   0.702   0.591  2.0734 -0.2934 -0.9006
  544SOL    HW2 2175   0.677   0.587   0.505  0.7815 -0.9133  0.6145
  544SOL     MW 2176   0.698   0.671   0.514  0.0005 -0.0006 -0.0016
  545SOL     OW 2177   0.009   2.694   2.480 -0.0731 -0.1549 -0.6610
  545SOL    HW1 2178   0.066   2.717   2.408  2.4743  0.1469  1.3154
  545SOL    HW2 2179  -0.039   2.617   2.450  1.9393 -0.8789 -2.1609
  545SOL     MW 2180   0.010   2.687   2.467  0.0005 -0.0006 -0.0016
  546SOL     OW 2181   1.147   0.825   3.017  0.0197 -0.0783  0.4885
  546SOL    HW1 2182   1.089   0.775   2.959 -0.7237 -0.7507  1.7505
  546SOL    HW2 2183   1.232   0.823   2.974 -0.6657  0.1031 -0.9405
  546SOL     MW 2184   1.150   0.818   3.004  0.0005 -0.0006 -0.0016
  547SOL     OW 2185   2.330   3.100   2.410 -0.2625 -0.0653 -0.6411
  547SOL    HW1 2186   2.304   3.024   2.358  0.7069 -0.9146  0.0713
  547SOL    HW2 2187   2.297   3.176   2.361 -2.4805 -0.9732 -0.6847
  547SOL     MW 2188   2.322   3.100   2.397  0.0005 -0.0006 -0.0016
  548SOL     OW 2189   2.217   1.523   2.200 -0.4119  0.5833 -0.2729
  548SOL    HW1 2190   2.171   1.533   2.116 -0.0829  0.8181 -0.4251
  548SOL    HW2 2191   2.168   1.578   2.260  0.4455  1.8789 -0.7391
  548SOL     MW 2192   2.205   1.531   2.197  0.0005 -0.0006 -0.0016
  549SOL     OW 2193   0.397   0.366   3.007  0.7586 -0.0732  0.1570
  549SOL    HW1 2194   0.438   0.380   2.921 -0.6291  0.6878 -0.4063
  549SOL    HW2 2195   0.471   0.350   3.066  1.7688 -0.2344 -1.0969
  549SOL     MW 2196   0.412   0.365   3.003  0.0005 -0.0006 -0.0016
  550SOL     OW 2197   1.200   1.866   1.105  0.6441 -0.2248 -0.0636
  550SOL    HW1 2198   1.147   1.930   1.153  0.9176  0.3913 -0.5693
  550SOL    HW2 2199   1.236   1.809   1.173 -0.3816 -0.4418  0.3108
  550SOL     MW 2200   1.198   1.867   1.120  0.0005 -0.0006 -0.0016
  551SOL     OW 2201   0.573   1.235   2.009  0.5193  0.3961 -0.4948
  551SOL    HW1 2202   0.485   1.250   2.043  0.8049  2.0932 -0.4196
  551SOL    HW2 2203   0.562   1.229   1.914  0.5133  2.6992 -0.6986
  551SOL     MW 2204   0.560   1.236   2.001  0.0005 -0.0006 -0.0016
  552SOL     OW 2205   1.076   1.487   1.966 -0.1719 -0.2698 -0.2587
  552SOL    HW1 2206   1.046   1.576   1.948  1.2550 -0.0274 -1.6461
  552SOL    HW2 2207   1.157   1.498   2.014 -1.2669 -0.8959  1.8641
  552SOL     MW 2208   1.082   1.500   1.970  0.0005 -0.0006 -0.0016
  553SOL     OW 2209   0.877   1.263   2.005  0.3312 -0.0323  0.1433
  553SOL    HW1 2210   0.782   1.267   1.994  0.4544  0.5168 -0.8141
  553SOL    HW2 2211   0.910   1.342   1.961  1.1023  0.8147  2.1057
  553SOL     MW 2212   0.869   1.274   1.998  0.0005 -0.0006 -0.0016
  554SOL     OW 2213   1.980   2.093   1.559  0.7051  0.1377 -0.1169
  554SOL    HW1 2214   1.958   2.047   1.478 -2.2900  0.3255  0.4758
  554SOL    HW2 2215   2.043   2.035   1.603 -2.1035 -3.0210  0.1233
  554SOL     MW 2216   1.986   2.080   1.554  0.0005 -0.0006 -0.0016
  555SOL     OW 2217   1.433   0.748   0.230 -0.7319  0.2812  0.3296
  555SOL    HW1 2218   1.375   0.676   0.253 -0.5379 -0.2703 -0.8274
  555SOL    HW2 2219   1.386   0.798   0.164 -0.7311  1.0522  0.8885
  555SOL     MW 2220   1.420   0.745   0.225  0.0005 -0.0006 -0.0016
  556SOL     OW 2221   2.423   2.307   0.246  0.0906 -0.1121  0.6385
  556SOL    HW1 2222   2.497   2.275   0.297  0.1054  0.5533  1.0479
  556SOL    HW2 2223   2.445   2.399   0.227 -0.8774  0.2626  1.2454
  556SOL     MW 2224   2.435   2.315   0.250  0.0005 -0.0006 -0.0016
  557SOL     OW 2225   1.365   2.768   1.708  0.5741  0.2694  0.2359
  557SOL    HW1 2226   1.418   2.729   1.638  1.0433 -1.0014  1.2449
  557SOL    HW2 2227   1.424   2.832   1.750  0.2357  1.1547 -0.6084
  557SOL     MW 2228   1.380   2.771   1.705  0.0005 -0.0006 -0.0016
  558SOL     OW 2229   2.294   2.024   1.327  0.0426  0.6505 -0.2183
  558SOL    HW1 2230   2.255   2.022   1.240  0.9569 -0.1256 -0.6381
  558SOL    HW2 2231   2.278   1.937   1.363  0.3230  0.7158  0.0751
  558SOL     MW 2232   2.287   2.012   1.320  0.0005 -0.0006 -0.0016
  559SOL     OW 2233   1.574   0.536   0.458 -0.1463  0.0735 -0.8857
  559SOL    HW1 2234   1.498   0.544   0.516  0.4359  1.1811 -0.2327
  559SOL    HW2 2235   1.543   0.486   0.383 -1.3014 -0.1658 -0.2607
  559SOL     MW 2236   1.561   0.530   0.456  0.0005 -0.0006 -0.0016
  560SOL     OW 2237   3.031   0.311   2.276 -0.1500  0.2968 -0.0206
  560SOL    HW1 2238   2.945   0.339   2.244  0.1151  0.8844 -0.2514
  560SOL    HW2 2239   3.063   0.387   2.325  0.2658  0.1115 -0.0042
  560SOL     MW 2240   3.024   0.324   2.278  0.0005 -0.0006 -0.0016
  561SOL     OW 2241   1.403   0.965   0.668 -0.8644 -0.4127  0.3931
  561SOL    HW1 2242   1.371   1.055   0.674 -0.6528 -0.4540  2.7844
  561SOL    HW2 2243   1.477   0.970   0.608 -0.8111  1.0142  0.5553
  561SOL     MW 2244   1.408   0.977   0.661  0.0005 -0.0006 -0.0016
  562SOL     OW 2245   0.298   2.430   1.782  0.0718 -0.0516  0.2378
  562SOL    HW1 2246   0.251   2.513   1.773 -1.1398 -0.8533 -1.2017
  562SOL    HW2 2247   0.350   2.441   1.862  0.2181  2.2016 -0.0944
  562SOL     MW 2248   0.299   2.442   1.791  0.0005 -0.0006 -0.0016
  563SOL     OW 2249   1.529   1.333   2.762  0.1713 -0.4750 -0.1572
  563SOL    HW1 2250   1.517   1.413   2.813  0.6291  0.1110 -0.9378
  563SOL    HW2 2251   1.476   1.346   2.683 -0.9602 -1.5951  0.3779
  563SOL     MW 2252   1.521   1.345   2.758  0.0005 -0.0006 -0.0016
  564SOL     OW 2253   1.557   1.865   2.134 -0.2783 -0.1760 -0.2705
  564SOL    HW1 2254   1.473   1.885   2.175  1.7595  1.9739  3.5247
  564SOL    HW2 2255   1.552   1.905   2.047 -1.8877  3.6112  1.3379
  564SOL     MW 2256   1.546   1.873   2.128  0.0005 -0.0006 -0.0016
  565SOL     OW 2257   1.964   0.226   2.726  0.2981  0.1213 -0.4001
  565SOL    HW1 2258   2.023   0.175   2.781 -0.1876 -0.0758 -0.0580
  565SOL    HW2 2259   1.880   0.181   2.733  0.3758 -0.2828 -1.8142
  565SOL     MW 2260   1.961   0.214   2.734  0.0005 -0.0006 -0.0016
  566SOL     OW 2261   1.069   0.957   1.673  0.9425 -0.6390 -0.1340
  566SOL    HW1 2262   1.040   0.869   1.698  1.8817 -1.0009 -0.2758
  566SOL    HW2 2263   1.025   0.973   1.590 -0.9521 -0.0671  0.9231
  566SOL     MW 2264   1.060   0.948   1.666  0.0005 -0.0006 -0.0016
  567SOL     OW 2265   0.472   1.934   2.159 -0.0958 -0.3070  0.1140
  567SOL    HW1 2266   0.505   1.903   2.244  0.5179  0.6679  0.2364
  567SOL    HW2 2267   0.541   1.989   2.124 -0.5365 -0.3246 -0.8247
  567SOL     MW 2268   0.485   1.937   2.166  0.0005 -0.0006 -0.0016
  568SOL     OW 2269   0.571   0.144   1.210 -0.2720 -0.2358  0.2347
  568SOL    HW1 2270   0.563   0.090   1.131 -2.7402  0.1840  0.1238
  568SOL    HW2 2271   0.488   0.132   1.256  0.3007  1.1499  1.7341
  568SOL     MW 2272   0.559   0.135   1.206  0.0005 -0.0006 -0.0016
  569SOL     OW 2273   0.771   2.838   0.751  0.4048  0.0019 -0.1308
  569SOL    HW1 2274   0.735   2.754   0.723 -2.2459  0.7855  0.6681
  569SOL    HW2 2275   0.772   2.891   0.671  0.8030 -0.3390 -0.3602
  569SOL     MW 2276   0.767   2.834   0.737  0.0005 -0.0006 -0.0016
  570SOL     OW 2277   2.144   1.624   0.777 -0.3010  0.2340  0.0428
  570SOL    HW1 2278   2.085   1.698   0.776  0.7114  1.0726  0.4039
  570SOL    HW2 2279   2.227   1.660   0.808  0.6407 -0.7189 -1.2569
  570SOL     MW 2280   2.147   1.638   0.781  0.0005 -0.0006 -0.0016
  571SOL     OW 2281   1.366   1.486   0.749 -0.1435  0.1146 -0.4152
  571SOL    HW1 2282   1.395   1.518   0.664 -1.1347  1.2154 -0.3577
  571SOL    HW2 2283   1.271   1.494   0.747 -0.1967 -0.0517  0.7143
  571SOL     MW 2284   1.358   1.491   0.738  0.0005 -0.0006 -0.0016
  572SOL     OW 2285   3.094   1.684   0.840 -0.3670 -0.1903 -0.4665
  572SOL    HW1 2286   3.062   1.696   0.751 -1.6598  0.7749  0.0936
  572SOL    HW2 2287   3.171   1.628   0.831 -0.0168  0.5147 -2.2630
  572SOL     MW 2288   3.100   1.679   0.828  0.0005 -0.0006 -0.0016
  573SOL     OW 2289   0.426   1.647   1.939  0.4356 -0.3010  0.4008
  573SOL    HW1 2290   0.388   1.687   2.018  0.2170  0.8134 -0.2519
  573SOL    HW2 2291   0.385   1.693   1.866  1.7563 -0.2477 -0.3491
  573SOL     MW 2292   0.416   1.658   1.940  0.0005 -0.0006 -0.0016
  574SOL     OW 2293   0.416   0.382   1.482  0.2489  0.0211  0.0983
  574SOL    HW1 2294   0.459   0.406   1.400  0.5562  1.2417  0.5849
  574SOL    HW2 2295   0.453   0.297   1.505  2.3786  0.9592  0.4242
  574SOL     MW 2296   0.426   0.374   1.475  0.0005 -0.0006 -0.0016
  575SOL     OW 2297   1.429  -0.010   1.010  0.3283  0.0823  0.3970
  575SOL    HW1 2298   1.392   0.002   0.922 -1.0030  0.1287  0.9497
  575SOL    HW2 2299   1.520   0.019   1.001 -0.2254  1.6333 -0.5856
  575SOL     MW 2300   1.436  -0.005   0.997  0.0005 -0.0006 -0.0016
  576SOL     OW 2301   1.828   1.303   0.308  0.2161 -0.6144  0.1713
  576SOL    HW1 2302   1.775   1.354   0.370 -1.2005 -1.1632 -0.5358
  576SOL    HW2 2303   1.806   1.340   0.223  0.6925 -1.1255 -0.1778
  576SOL     MW 2304   1.818   1.314   0.305  0.0005 -0.0006 -0.0016
  577SOL     OW 2305   2.321   3.019   0.837  0.1340  0.3041 -0.5843
  577SOL    HW1 2306   2.327   2.924   0.848 -1.9771  0.2947  1.0785
  577SOL    HW2 2307   2.243   3.031   0.782  0.7401  1.0758 -1.2931
  577SOL     MW 2308   2.311   3.008   0.831  0.0005 -0.0006 -0.0016
  578SOL     OW 2309   1.164   2.595   0.096 -0.0432  0.6554 -0.4862
  578SOL    HW1 2310   1.168   2.641   0.179  0.0052  2.0181 -1.2208
  578SOL    HW2 2311   1.110   2.518   0.113 -1.4010  1.7689  0.4101
  578SOL     MW 2312   1.158   2.591   0.109  0.0005 -0.0006 -0.0016
  579SOL     OW 2313   2.422   2.997   3.104  0.2561  0.1454 -0.0281
  579SOL    HW1 2314   2.514   3.021   3.105 -0.4547  3.1676  0.8862
  579SOL    HW2 2315   2.421   2.904   3.129  3.0283 -0.0936 -0.5310
  579SOL     MW 2316   2.433   2.988   3.107  0.0005 -0.0006 -0.0016
  580SOL     OW 2317   2.219   1.395   1.549  0.2273 -0.9636 -0.8519
  580SOL    HW1 2318   2.221   1.490   1.555  3.3204 -0.8733 -1.4070
  580SOL    HW2 2319   2.214   1.365   1.640  1.4639 -0.1895 -0.4964
  580SOL     MW 2320   2.219   1.403   1.562  0.0005 -0.0006 -0.0016
  581SOL     OW 2321   2.086   0.413   1.263  0.2482 -0.1747 -0.2277
  581SOL    HW1 2322   2.142   0.398   1.187 -1.1782  0.9258 -1.5636
  581SOL    HW2 2323   2.064   0.325   1.294  1.3174 -0.6320 -0.7009
  581SOL     MW 2324   2.090   0.400   1.257  0.0005 -0.0006 -0.0016
  582SOL     OW 2325   0.625   1.167   2.270 -0.7249  0.6104 -0.1006
  582SOL    HW1 2326   0.592   1.241   2.321 -2.9648 -0.1182 -0.3672
  582SOL    HW2 2327   0.634   1.200   2.181 -0.3793  0.9163  0.0475
  582SOL     MW 2328   0.622   1.180   2.265  0.0005 -0.0006 -0.0016
  583SOL     OW 2329   2.774   1.310   0.938 -0.1108 -0.4101 -0.2143
  583SOL    HW1 2330   2.682   1.285   0.938 -0.2189 -0.0954  1.5384
  583SOL    HW2 2331   2.778   1.391   0.989  1.0653 -0.1207 -0.7174
  583SOL     MW 2332   2.763   1.317   0.944  0.0005 -0.0006 -0.0016
  584SOL     OW 2333   2.449   2.310   1.007  0.4818 -0.0311 -0.0873
  584SOL    HW1 2334   2.531   2.265   0.991  0.9826  0.7847  0.1396
  584SOL    HW2 2335   2.434   2.301   1.102 -0.5455 -1.5875 -0.3547
  584SOL     MW 2336   2.457   2.303   1.017  0.0005 -0.0006 -0.0016
  585SOL     OW 2337   0.684   2.100   2.185 -0.3035  0.0652 -0.0775
  585SOL    HW1 2338   0.708   2.192   2.170 -0.5069  0.2454  0.6700
  585SOL    HW2 2339   0.648   2.099   2.274  0.9352 -0.9736  0.4563
  585SOL     MW 2340   0.683   2.112   2.195  0.0005 -0.0006 -0.0016
  586SOL     OW 2341   1.694   0.102   1.036 -0.5614  0.3158  0.3208
  586SOL    HW1 2342   1.733   0.136   0.955 -0.0486  1.3190  0.9629
  586SOL    HW2 2343   1.714   0.169   1.102 -0.7755 -0.5828  1.3289
  586SOL     MW 2344   1.702   0.115   1.034  0.0005 -0.0006 -0.0016
  587SOL     OW 2345   1.927   1.077   2.270  0.1161 -0.0302  0.1339
  587SOL    HW1 2346   1.853   1.023   2.241  0.8040 -0.7171 -0.3885
  587SOL    HW2 2347   1.979   1.090   2.191  0.6612  0.2813  0.5377
  587SOL     MW 2348   1.924   1.072   2.256  0.0005 -0.0006 -0.0016
  588SOL     OW 2349   1.857   1.782   2.474  0.5360 -0.2035 -0.1244
  588SOL    HW1 2350   1.949   1.805   2.457  0.8026 -0.8636  0.3706
  588SOL    HW2 2351   1.848   1.693   2.440 -0.3708  0.4220 -1.6409
  588SOL     MW 2352   1.868   1.773   2.467  0.0005 -0.0006 -0.0016
  589SOL     OW 2353   2.240   2.369   2.431  0.3151 -0.1039  0.1336
  589SOL    HW1 2354   2.166   2.412   2.473  1.2090  0.7125  0.9295
  589SOL    HW2 2355   2.220   2.370   2.338 -0.2891  0.8521  0.2655
  589SOL     MW 2356   2.228   2.374   2.425  0.0005 -0.0006 -0.0016
  590SOL     OW 2357   0.088   2.786   1.513 -0.4557  0.3588 -0.4509
  590SOL    HW1 2358   0.009   2.733   1.514  0.9066 -1.8516  1.7069
  590SOL    HW2 2359   0.071   2.857   1.576 -0.9681  0.2925 -0.5159
  590SOL     MW 2360   0.076   2.788   1.521  0.0005 -0.0006 -0.0016
  591SOL     OW 2361   2.809   2.786   2.648  0.1673  0.3847 -0.3136
  591SOL    HW1 2362   2.828   2.724   2.719 -0.7149  0.7084  0.2194
  591SOL    HW2 2363   2.724   2.824   2.672 -0.2940  0.2787 -1.6944
  591SOL     MW 2364   2.800   2.783   2.660  0.0005 -0.0006 -0.0016
  592SOL     OW 2365   0.737   2.753   0.486  0.0073  0.2515  0.2915
  592SOL    HW1 2366   0.826   2.789   0.497  0.4146 -0.5408 -0.3129
  592SOL    HW2 2367   0.681   2.830   0.477  0.6085  0.7657  0.8477
  592SOL     MW 2368   0.742   2.767   0.486  0.0005 -0.0006 -0.0016
  593SOL     OW 2369   1.766   0.590   1.774 -0.0842  0.5981 -0.4034
  593SOL    HW1 2370   1.847   0.546   1.747  0.1527  0.0864  1.0125
  593SOL    HW2 2371   1.789   0.632   1.857 -1.6002 -0.7384  0.7760
  593SOL     MW 2372   1.779   0.590   1.781  0.0005 -0.0006 -0.0016
  594SOL     OW 2373   0.745   2.722   1.979  0.1328 -0.1634 -0.6381
  594SOL    HW1 2374   0.766   2.776   1.903  2.5719  1.1494  0.8432
  594SOL    HW2 2375   0.711   2.785   2.044  2.7797 -0.2990  1.0265
  594SOL     MW 2376   0.743   2.737   1.978  0.0005 -0.0006 -0.0016
  595SOL     OW 2377   2.071   2.937   1.152 -0.6938 -0.1232  0.9133
  595SOL    HW1 2378   2.106   3.022   1.126  0.3267 -0.4370  1.1919
  595SOL    HW2 2379   1.978   2.953   1.168 -1.1107  0.3666 -1.5666
  595SOL     MW 2380   2.064   2.950   1.151  0.0005 -0.0006 -0.0016
  596SOL     OW 2381   1.677   1.778   1.439 -0.6676 -0.1981 -0.2424
  596SOL    HW1 2382   1.608   1.730   1.392 -1.5236  1.0321 -0.3033
  596SOL    HW2 2383   1.635   1.805   1.521 -0.3322  0.7057 -0.3544
  596SOL     MW 2384   1.663   1.776   1.443  0.0005 -0.0006 -0.0016
  597SOL     OW 2385   0.570   1.051   2.867  0.0672 -0.7015 -0.8584
  597SOL    HW1 2386   0.660   1.030   2.892 -0.3627 -0.4395  1.0232
  597SOL    HW2 2387   0.517   0.981   2.904 -0.5603 -0.5982 -1.5416
  597SOL     MW 2388   0.575   1.040   2.875  0.0005 -0.0006 -0.0016
  598SOL     OW 2389   2.997   0.948   2.492 -0.2382 -0.1322 -0.2652
  598SOL    HW1 2390   3.046   0.930   2.412 -1.2542  1.4865 -1.3252
  598SOL    HW2 2391   2.961   0.864   2.518  0.6146 -0.7959 -1.1558
  598SOL     MW 2392   2.999   0.935   2.485  0.0005 -0.0006 -0.0016
  599SOL     OW 2393   0.649   0.055   2.973 -0.0116 -0.0498  0.1867
  599SOL    HW1 2394   0.655  -0.039   2.993  2.1806 -0.5651 -2.2962
  599SOL    HW2 2395   0.723   0.094   3.020 -0.3196  0.2930  0.3937
  599SOL     MW 2396   0.659   0.048   2.982  0.0005 -0.0006 -0.0016
  600SOL     OW 2397   2.903   0.522   1.541 -0.7572  0.8476  0.0149
  600SOL    HW1 2398   2.958   0.552   1.614 -2.1125  3.0721  0.2453
  600SOL    HW2 2399   2.964   0.481   1.480  0.4434 -1.0411  2.3209
  600SOL     MW 2400   2.918   0.521   1.543  0.0005 -0.0006 -0.0016
  601SOL     OW 2401   0.896   1.067   0.486  0.1604  0.4711  0.0150
  601SOL    HW1 2402   0.986   1.097   0.500  0.1672  0.4395  0.0381
  601SOL    HW2 2403   0.842   1.133   0.530  0.1091  1.1890 -1.0832
  601SOL     MW 2404   0.900   1.079   0.494  0.0005 -0.0006 -0.0016
  602SOL     OW 2405   1.812   2.427   2.969 -0.5856  0.4817  0.6002
  602SOL    HW1 2406   1.860   2.507   2.992 -0.8144  0.3849  1.4485
  602SOL    HW2 2407   1.880   2.362   2.950 -0.3951  0.7213  0.4657
  602SOL     MW 2408   1.827   2.429   2.969  0.0005 -0.0006 -0.0016
  603SOL     OW 2409   1.246   2.922   2.443  0.1726 -0.8135 -0.0189
  603SOL    HW1 2410   1.237   3.009   2.482  0.1430 -0.7962 -0.0646
  603SOL    HW2 2411   1.173   2.872   2.478  0.1105 -0.7801 -0.1007
  603SOL     MW 2412   1.236   2.926   2.452  0.0005 -0.0006 -0.0016
  604SOL     OW 2413   2.115   0.193   1.576 -0.0303 -0.2958  0.5023
  604SOL    HW1 2414   2.080   0.160   1.493 -0.0910 -0.0626  0.4345
  604SOL    HW2 2415   2.186   0.252   1.551 -0.6500  0.5049  0.5726
  604SOL     MW 2416   2.119   0.197   1.562  0.0005 -0.0006 -0.0016
  605SOL     OW 2417   2.245   1.547   3.039 -0.3701  0.3418 -0.5449
  605SOL    HW1 2418   2.322   1.504   3.001  0.6101  1.6497 -0.1198
  605SOL    HW2 2419   2.259   1.640   3.021 -1.3813  0.6870  0.3763
  605SOL     MW 2420   2.257   1.553   3.032  0.0005 -0.0006 -0.0016
  606SOL     OW 2421   0.774   0.411   1.985 -0.4161  0.3870  0.8573
  606SOL    HW1 2422   0.751   0.503   1.972 -2.3018  0.0031  1.2168
  606SOL    HW2 2423   0.762   0.371   1.898  1.1602  0.5873  0.5105
  606SOL     MW 2424   0.770   0.417   1.972  0.0005 -0.0006 -0.0016
  607SOL     OW 2425   1.074   2.328   0.151  0.4865 -0.3387 -0.2987
  607SOL    HW1 2426   1.000   2.304   0.094  0.6704 -0.5827 -0.4402
  607SOL    HW2 2427   1.151   2.302   0.101  0.6463 -0.7008  0.1289
  607SOL     MW 2428   1.074   2.321   0.137  0.0005 -0.0006 -0.0016
  608SOL     OW 2429   0.938   2.648   1.726 -0.1820 -0.1900 -0.2842
  608SOL    HW1 2430   0.860   2.704   1.733 -0.1680 -0.2116  0.0267
  608SOL    HW2 2431   0.991   2.690   1.658  0.1537  0.5662  0.4312
  608SOL     MW 2432   0.934   2.660   1.718  0.0005 -0.0006 -0.0016
  609SOL     OW 2433   2.531   2.090   1.422  0.4374  0.3349  0.4449
  609SOL    HW1 2434   2.507   2.121   1.509 -0.3545  0.1548  0.2929
  609SOL    HW2 2435   2.448   2.069   1.380  0.8591 -0.3417 -0.0712
  609SOL     MW 2436   2.517   2.091   1.428  0.0005 -0.0006 -0.0016
  610SOL     OW 2437  -0.015   0.900   2.251  0.3085 -0.3214  0.0413
  610SOL    HW1 2438   0.051   0.834   2.270  0.3576 -0.3899 -0.3579
  610SOL    HW2 2439   0.033   0.970   2.207 -0.2183 -1.3060 -2.2346
  610SOL     MW 2440  -0.001   0.901   2.248  0.0005 -0.0006 -0.0016
  611SOL     OW 2441   2.297   1.468   1.208 -0.7670 -0.4891  0.3445
  611SOL    HW1 2442   2.302   1.470   1.113  1.9035 -1.7190  0.3752
  611SOL    HW2 2443   2.243   1.392   1.228  0.1432 -1.3047 -0.2220
  611SOL     MW 2444   2.291   1.459   1.198  0.0005 -0.0006 -0.0016
  612SOL     OW 2445   2.503   0.848   0.673 -0.2588  0.2803 -0.2516
  612SOL    HW1 2446   2.518   0.874   0.764  0.0158 -0.3653 -0.1079
  612SOL    HW2 2447   2.420   0.889   0.650  1.3774  3.5738 -0.8968
  612SOL     MW 2448   2.494   0.857   0.682  0.0005 -0.0006 -0.0016
  613SOL     OW 2449   2.993   2.954   2.464  0.0448  0.4723 -0.3415
  613SOL    HW1 2450   2.934   2.949   2.539  0.3980  1.2381 -0.0042
  613SOL    HW2 2451   3.036   2.868   2.463 -0.3933  0.2452 -0.0289
  613SOL     MW 2452   2.991   2.942   2.474  0.0005 -0.0006 -0.0016
  614SOL     OW 2453   0.172   2.665   1.746 -0.0369 -0.1932  0.4966
  614SOL    HW1 2454   0.113   2.689   1.817 -2.4320 -2.7543 -0.4216
  614SOL    HW2 2455   0.122   2.681   1.666  1.7503  0.4952 -0.5644
  614SOL     MW 2456   0.158   2.670   1.745  0.0005 -0.0006 -0.0016
  615SOL     OW 2457   2.494   1.664   0.284 -0.7077 -0.7529  0.1773
  615SOL    HW1 2458   2.434   1.736   0.265 -0.6841 -0.3619  1.5309
  615SOL    HW2 2459   2.448   1.585   0.254 -1.1681 -0.2930 -0.3398
  615SOL     MW 2460   2.481   1.663   0.278  0.0005 -0.0006 -0.0016
  616SOL     OW 2461   0.869   0.252   3.096 -0.4019 -1.3690 -0.0733
  616SOL    HW1 2462   0.870   0.299   3.013 -0.5215 -0.3177  0.5036
  616SOL    HW2 2463   0.962   0.237   3.116 -0.3542 -1.1510 -0.1332
  616SOL     MW 2464   0.881   0.256   3.088  0.0005 -0.0006 -0.0016
  617SOL     OW 2465   0.912   2.551   2.924 -0.5095 -0.6768  0.5205
  617SOL    HW1 2466   0.857   2.518   2.995 -0.7806  0.3184  0.7971
  617SOL    HW2 2467   0.901   2.646   2.928 -2.7831 -0.6674 -2.6542
  617SOL     MW 2468   0.904   2.559   2.934  0.0005 -0.0006 -0.0016
  618SOL     OW 2469   2.994   1.571   0.262 -0.0636 -0.0245 -0.1378
  618SOL    HW1 2470   3.082   1.587   0.295 -0.0315 -1.4567  0.5880
  618SOL    HW2 2471   2.940   1.562   0.341 -0.7704  0.3982 -0.5637
  618SOL     MW 2472   2.998   1.572   0.276  0.0005 -0.0006 -0.0016
  619SOL     OW 2473   2.765   0.976   0.071  0.3647 -0.2539 -0.5028
  619SOL    HW1 2474   2.843   1.029   0.059  1.4497 -1.0458  2.3520
  619SOL    HW2 2475   2.794   0.900   0.121 -2.1385 -0.8163  0.2674
  619SOL     MW 2476   2.779   0.973   0.076  0.0005 -0.0006 -0.0016
  620SOL     OW 2477   0.625   0.328   0.322 -0.1974 -0.1693 -0.2258
  620SOL    HW1 2478   0.713   0.358   0.345 -0.9298  1.6952  0.3851
  620SOL    HW2 2479   0.621   0.337   0.227  0.2403 -0.1742 -0.2476
  620SOL     MW 2480   0.636   0.333   0.313  0.0005 -0.0006 -0.0016
  621SOL     OW 2481   2.538   0.314   1.161 -0.1783  0.0202 -0.7244
  621SOL    HW1 2482   2.474   0.255   1.202 -2.7888  2.6782 -0.6354
  621SOL    HW2 2483   2.615   0.259   1.146 -0.2913 -2.1261  4.3469
  621SOL     MW 2484   2.540   0.299   1.165  0.0005 -0.0006 -0.0016
  622SOL     OW 2485   0.815   0.116   0.429  0.2181 -1.1174  0.4265
  622SOL    HW1 2486   0.741   0.144   0.374  0.7298 -0.8851 -0.1535
  622SOL    HW2 2487   0.774   0.084   0.510 -0.4392  0.4669  0.7494
  622SOL     MW 2488   0.800   0.115   0.432  0.0005 -0.0006 -0.0016
  623SOL     OW 2489   0.239   1.411   1.609 -0.2834 -0.0834  0.0241
  623SOL    HW1 2490   0.213   1.323   1.583  0.7383 -0.1280 -0.9216
  623SOL    HW2 2491   0.307   1.436   1.546  1.7721  0.1054  2.1532
  623SOL     MW 2492   0.244   1.403   1.598  0.0005 -0.0006 -0.0016
  624SOL     OW 2493   0.996   1.973   0.394 -0.7455 -0.2290  0.1081
  624SOL    HW1 2494   0.936   1.981   0.467 -0.8558  0.5892 -0.0685
  624SOL    HW2 2495   1.033   2.060   0.383 -0.6483 -0.3671 -0.7365
  624SOL     MW 2496   0.993   1.985   0.402  0.0005 -0.0006 -0.0016
  625SOL     OW 2497   2.510   1.078   1.774  0.9133 -0.1075 -0.4066
  625SOL    HW1 2498   2.588   1.043   1.817  0.4351  0.2963  0.8170
  625SOL    HW2 2499   2.538   1.162   1.738  1.5254 -0.7941 -1.6291
  625SOL     MW 2500   2.524   1.084   1.775  0.0005 -0.0006 -0.0016
  626SOL     OW 2501   0.975   2.033   1.571  1.0334 -0.1015 -0.0702
  626SOL    HW1 2502   0.885   2.048   1.542  1.7252  1.0153 -1.8088
  626SOL    HW2 2503   1.007   1.963   1.515  1.8021  0.7610 -0.7309
  626SOL     MW 2504   0.968   2.026   1.560  0.0005 -0.0006 -0.0016
  627SOL     OW 2505   1.475   0.495   1.909 -0.7857 -0.0419  0.1257
  627SOL    HW1 2506   1.494   0.493   1.815 -2.0402  0.6609 -0.1609
  627SOL    HW2 2507   1.507   0.411   1.941 -0.3955 -0.3203 -0.9370
  627SOL     MW 2508   1.481   0.484   1.901  0.0005 -0.0006 -0.0016
  628SOL     OW 2509   1.987   0.617   2.331 -0.1423 -0.3770 -0.5593
  628SOL    HW1 2510   1.960   0.668   2.408  0.9362  1.0294 -1.0618
  628SOL    HW2 2511   1.931   0.650   2.261 -0.5862 -1.0996 -0.5497
  628SOL     MW 2512   1.976   0.628   2.332  0.0005 -0.0006 -0.0016
  629SOL     OW 2513   0.376   1.855   1.133 -0.6234 -0.1283 -0.1170
  629SOL    HW1 2514   0.288   1.857   1.096 -0.2777 -0.8927 -1.0649
  629SOL    HW2 2515   0.364   1.830   1.224 -1.4238  0.3891 -0.0763
  629SOL     MW 2516   0.364   1.852   1.140  0.0005 -0.0006 -0.0016
  630SOL     OW 2517   1.257   3.099   0.113  0.0910 -0.2358 -0.1787
  630SOL    HW1 2518   1.221   3.037   0.050  0.2892  0.6854 -1.2181
  630SOL    HW2 2519   1.207   3.179   0.100 -1.1130 -0.5288  2.1061
  630SOL     MW 2520   1.246   3.101   0.103  0.0005 -0.0006 -0.0016
  631SOL     OW 2521   1.142   1.774   1.745 -0.3841 -0.6349 -0.3943
  631SOL    HW1 2522   1.207   1.829   1.789 -0.7795 -0.9761  0.6332
  631SOL    HW2 2523   1.192   1.698   1.715 -0.1351 -0.4609 -0.4237
  631SOL     MW 2524   1.157   1.771   1.747  0.0005 -0.0006 -0.0016
  632SOL     OW 2525   2.501   3.063   0.556 -0.0833  0.0528  0.4993
  632SOL    HW1 2526   2.485   3.146   0.601  0.1608  1.4421 -1.7886
  632SOL    HW2 2527   2.426   3.052   0.498  1.7998  1.0288 -2.3886
  632SOL     MW 2528   2.489   3.072   0.554  0.0005 -0.0006 -0.0016
  633SOL     OW 2529   2.242   0.672   2.216 -0.2510 -0.3773  0.9705
  633SOL    HW1 2530   2.146   0.668   2.222 -0.4889  2.8035  0.9115
  633SOL    HW2 2531   2.263   0.618   2.140 -2.4679  1.8997 -1.4495
  633SOL     MW 2532   2.232   0.664   2.207  0.0005 -0.0006 -0.0016
  634SOL     OW 2533   0.366   1.526   2.227 -0.5134 -0.0244  0.1193
  634SOL    HW1 2534   0.323   1.604   2.193  0.6924  0.6514  0.0744
  634SOL    HW2 2535   0.459   1.548   2.227 -0.2979 -0.6967  2.0771
  634SOL     MW 2536   0.373   1.539   2.223  0.0005 -0.0006 -0.0016
  635SOL     OW 2537   2.272   2.522   1.739 -0.4951 -0.2006  0.6432
  635SOL    HW1 2538   2.178   2.537   1.723 -1.0174  0.0992  3.5411
  635SOL    HW2 2539   2.315   2.564   1.665 -2.6025  0.5961 -0.2229
  635SOL     MW 2540   2.265   2.529   1.727  0.0005 -0.0006 -0.0016
  636SOL     OW 2541   1.761   0.586   2.787  0.3140 -0.1221 -0.0307
  636SOL    HW1 2542   1.730   0.606   2.699 -0.8329  1.0731  0.6163
  636SOL    HW2 2543   1.854   0.566   2.775  1.4285  4.3539 -1.0604
  636SOL     MW 2544   1.769   0.586   2.774  0.0005 -0.0006 -0.0016
  637SOL     OW 2545   0.321   2.389   0.187 -0.4313  0.1027  0.0134
  637SOL    HW1 2546   0.292   2.302   0.213 -1.1918  0.5362  0.6399
  637SOL    HW2 2547   0.302   2.445   0.262 -3.9271  1.6607 -1.7734
  637SOL     MW 2548   0.315   2.385   0.200  0.0005 -0.0006 -0.0016
  638SOL     OW 2549   2.017   0.778   0.461 -0.2322 -0.0324  0.3132
  638SOL    HW1 2550   2.063   0.758   0.380 -0.7267 -2.1713  0.5123
  638SOL    HW2 2551   2.086   0.801   0.523  0.7282 -3.2590  0.6348
  638SOL     MW 2552   2.031   0.779   0.458  0.0005 -0.0006 -0.0016
  639SOL     OW 2553   0.058   1.534   2.256 -0.0657 -0.2781  0.2102
  639SOL    HW1 2554   0.034   1.547   2.164 -1.7559 -2.1220  0.3228
  639SOL    HW2 2555   0.040   1.442   2.273  0.8559 -0.1445  2.2286
  639SOL     MW 2556   0.052   1.524   2.247  0.0005 -0.0006 -0.0016
  640SOL     OW 2557   1.048   1.639   2.548  0.1485 -0.1544 -0.0770
  640SOL    HW1 2558   1.091   1.590   2.478 -1.5495 -3.6161  1.0317
  640SOL    HW2 2559   0.974   1.682   2.506  0.0231 -0.9447 -0.6757
  640SOL     MW 2560   1.044   1.638   2.534  0.0005 -0.0006 -0.0016
  641SOL     OW 2561   1.104   2.201   0.392 -0.0483 -0.0694 -0.1626
  641SOL    HW1 2562   1.090   2.258   0.316 -0.7764 -2.1007 -1.6361
  641SOL    HW2 2563   1.066   2.249   0.465 -0.7972  1.2567 -1.3729
  641SOL     MW 2564   1.097   2.215   0.391  0.0005 -0.0006 -0.0016
  642SOL     OW 2565   0.318   1.285   2.101  0.2103 -0.2643  0.3652
  642SOL    HW1 2566   0.269   1.302   2.021 -1.7336 -0.8974  1.3527
  642SOL    HW2 2567   0.326   1.371   2.142 -0.9869 -0.2632  0.6517
  642SOL     MW 2568   0.312   1.298   2.096  0.0005 -0.0006 -0.0016
  643SOL     OW 2569   2.285   0.519   0.024  0.1436  0.0884 -0.4115
  643SOL    HW1 2570   2.265   0.504   0.116 -1.8015  0.2813 -0.7615
  643SOL    HW2 2571   2.309   0.432  -0.010  1.5783  0.1358  0.3948
  643SOL     MW 2572   2.285   0.506   0.031  0.0005 -0.0006 -0.0016
  644SOL     OW 2573   2.837   0.360   1.903 -0.6586  0.0595 -0.1326
  644SOL    HW1 2574   2.778   0.388   1.833 -1.0755 -1.5919 -0.5013
  644SOL    HW2 2575   2.803   0.274   1.928  0.5291 -0.1232  0.9075
  644SOL     MW 2576   2.825   0.352   1.897  0.0005 -0.0006 -0.0016
  645SOL     OW 2577   3.117   2.149   1.634  0.1880  0.2675  0.0292
  645SOL    HW1 2578   3.181   2.106   1.691  1.5158  0.9112 -0.9446
  645SOL    HW2 2579   3.042   2.089   1.633  1.4839 -1.3981 -0.2809
  645SOL     MW 2580   3.115   2.136   1.641  0.0005 -0.0006 -0.0016
  646SOL     OW 2581   0.014   2.160   2.643  0.4120  0.0580  0.3591
  646SOL    HW1 2582   0.057   2.233   2.598  0.1172 -0.0851 -0.1583
  646SOL    HW2 2583   0.072   2.141   2.717  0.8573  0.3548  0.0974
  646SOL     MW 2584   0.027   2.167   2.647  0.0005 -0.0006 -0.0016
  647SOL     OW 2585   0.716   2.169   1.655  0.1394 -0.1086 -0.1756
  647SOL    HW1 2586   0.716   2.258   1.621  0.1980  0.4250  1.1496
  647SOL    HW2 2587   0.744   2.178   1.746 -0.1739 -1.4429  0.0795
  647SOL     MW 2588   0.719   2.181   1.663  0.0005 -0.0006 -0.0016
  648SOL     OW 2589   2.135   0.727   1.568  0.0172  0.4303  0.3884
  648SOL    HW1 2590   2.215   0.767   1.603 -0.4795  1.3730  0.4904
  648SOL    HW2 2591   2.134   0.752   1.476  1.2546 -1.9403 -0.3479
  648SOL     MW 2592   2.146   0.736   1.561  0.0005 -0.0006 -0.0016
  649SOL     OW 2593   2.524   1.974   2.909  0.8220 -0.1569 -0.1565
  649SOL    HW1 2594   2.554   2.056   2.950  0.9637 -0.2499 -0.0738
  649SOL    HW2 2595   2.555   1.981   2.818 -0.1473  0.3919 -0.4638
  649SOL     MW 2596   2.532   1.986   2.902  0.0005 -0.0006 -0.0016
  650SOL     OW 2597   2.854   0.817   0.806  0.7072  1.1887 -0.4818
  650SOL    HW1 2598   2.920   0.840   0.742  0.3266 -0.1842 -1.4095
  650SOL    HW2 2599   2.900   0.760   0.868  1.2414  3.0163  0.9007
  650SOL     MW 2600   2.869   0.813   0.806  0.0005 -0.0006 -0.0016
  651SOL     OW 2601   0.726   0.293   1.728  0.0872 -0.5319  0.0982
  651SOL    HW1 2602   0.741   0.309   1.635  1.9697 -0.6651  0.3469
  651SOL    HW2 2603   0.783   0.219   1.749  1.5028  0.9808  1.8581
  651SOL     MW 2604   0.735   0.285   1.719  0.0005 -0.0006 -0.0016
  652SOL     OW 2605   2.914   1.199   2.417  0.1040 -0.1065 -0.1516
  652SOL    HW1 2606   2.944   1.115   2.452 -0.3985 -0.8612 -1.4575
  652SOL    HW2 2607   2.826   1.210   2.454  0.2975  0.0070  0.2775
  652SOL     MW 2608   2.906   1.190   2.427  0.0005 -0.0006 -0.0016
  653SOL     OW 2609   1.834   1.760   2.756 -0.5347  0.0903 -0.3052
  653SOL    HW1 2610   1.905   1.818   2.784 -1.6383  1.0020  0.7330
  653SOL    HW2 2611   1.836   1.764   2.660  0.2778  0.7481 -0.2742
  653SOL     MW 2612   1.844   1.768   2.747  0.0005 -0.0006 -0.0016
  654SOL     OW 2613   0.577   1.925   0.956  0.2165  0.4086  0.1157
  654SOL    HW1 2614   0.645   1.980   0.996 -0.9951  1.1286  1.2756
  654SOL    HW2 2615   0.537   1.879   1.030  0.5726 -1.3403 -0.7370
  654SOL     MW 2616   0.580   1.926   0.971  0.0005 -0.0006 -0.0016
  655SOL     OW 2617   2.547   0.570   2.707 -0.3471 -0.4048 -0.0216
  655SOL    HW1 2618   2.536   0.665   2.703  1.2313 -0.2080 -0.6289
  655SOL    HW2 2619   2.628   0.558   2.758 -1.0414 -1.4771  0.8786
  655SOL     MW 2620   2.556   0.581   2.713  0.0005 -0.0006 -0.0016
  656SOL     OW 2621   0.938   2.599   2.135 -0.0344  0.1336 -0.4209
  656SOL    HW1 2622   0.869   2.634   2.078  0.4993  1.2006 -0.4271
  656SOL    HW2 2623   1.001   2.669   2.143  1.1884 -0.9111 -0.5970
  656SOL     MW 2624   0.937   2.612   2.129  0.0005 -0.0006 -0.0016
  657SOL     OW 2625   1.771   1.902   0.486  0.0651 -0.5751 -0.1997
  657SOL    HW1 2626   1.839   1.939   0.430  1.0659 -0.2493  1.1956
  657SOL    HW2 2627   1.756   1.814   0.451  0.2386 -0.1712 -1.3235
  657SOL     MW 2628   1.778   1.896   0.474  0.0005 -0.0006 -0.0016
  658SOL     OW 2629   1.625   2.487   0.214  0.6203 -0.1783  0.1159
  658SOL    HW1 2630   1.597   2.437   0.291  0.4770  0.0044  0.1838
  658SOL    HW2 2631   1.639   2.421   0.146  0.7742 -0.3439  0.3055
  658SOL     MW 2632   1.623   2.472   0.215  0.0005 -0.0006 -0.0016
  659SOL     OW 2633   0.797   0.494   2.912 -0.3451 -0.4127 -0.7444
  659SOL    HW1 2634   0.708   0.488   2.877 -0.8306 -0.8518  0.4834
  659SOL    HW2 2635   0.789   0.551   2.989  0.0282 -1.9217  0.4780
  659SOL     MW 2636   0.784   0.500   2.918  0.0005 -0.0006 -0.0016
  660SOL     OW 2637   1.178   2.467   2.969  0.1057 -0.1391  0.0009
  660SOL    HW1 2638   1.084   2.478   2.955  0.3825 -0.1900 -2.0909
  660SOL    HW2 2639   1.194   2.508   3.054 -1.3704  2.2493 -0.7865
  660SOL     MW 2640   1.168   2.473   2.978  0.0005 -0.0006 -0.0016
  661SOL     OW 2641   1.056   0.087   1.134 -0.5083  0.5540 -0.1330
  661SOL    HW1 2642   1.109   0.053   1.205 -4.5214 -0.0414  2.9696
  661SOL    HW2 2643   1.041   0.013   1.076 -0.1094  0.0373  0.4205
  661SOL     MW 2644   1.061   0.073   1.136  0.0005 -0.0006 -0.0016
  662SOL     OW 2645   2.607   1.283   0.259  0.1506  0.0422  0.0838
  662SOL    HW1 2646   2.690   1.327   0.242  0.2956  0.6845  2.1568
  662SOL    HW2 2647   2.632   1.194   0.283  0.1699  0.0240 -0.0012
  662SOL     MW 2648   2.621   1.277   0.260  0.0005 -0.0006 -0.0016
  663SOL     OW 2649   0.189   1.133   1.582 -0.1658 -1.2044  0.2159
  663SOL    HW1 2650   0.271   1.088   1.562  0.2707  0.2186 -1.4119
  663SOL    HW2 2651   0.140   1.131   1.500  0.2145  1.9028 -0.2041
  663SOL     MW 2652   0.193   1.127   1.569  0.0005 -0.0006 -0.0016
  664SOL     OW 2653   1.657   1.685   0.833 -0.1330  0.2656  0.0181
  664SOL    HW1 2654   1.650   1.706   0.926  0.3879  1.4197 -0.1846
  664SOL    HW2 2655   1.575   1.716   0.795 -0.0550  0.4335 -0.0150
  664SOL     MW 2656   1.645   1.692   0.840  0.0005 -0.0006 -0.0016
  665SOL     OW 2657   1.106   1.571   2.934  0.4620 -0.2626 -0.0440
  665SOL    HW1 2658   1.010   1.576   2.937  0.5502  1.9713  1.0951
  665SOL    HW2 2659   1.132   1.654   2.893  1.9407 -0.1197  1.1364
  665SOL     MW 2660   1.097   1.582   2.929  0.0005 -0.0006 -0.0016
  666SOL     OW 2661   1.984   0.010   2.203  0.2117 -0.6477 -0.0441
  666SOL    HW1 2662   1.901   0.050   2.227 -0.3442 -1.5204 -0.4741
  666SOL    HW2 2663   2.050   0.072   2.234 -0.6186  0.7961 -1.0206
  666SOL     MW 2664   1.982   0.023   2.210  0.0005 -0.0006 -0.0016
  667SOL     OW 2665   0.681   1.498   1.466 -0.3743  0.4674 -0.3696
  667SOL    HW1 2666   0.756   1.551   1.442 -1.8998  1.7316 -2.7556
  667SOL    HW2 2667   0.716   1.410   1.478  1.4378  0.9818 -1.5783
  667SOL     MW 2668   0.695   1.493   1.465  0.0005 -0.0006 -0.0016
  668SOL     OW 2669   0.405   2.484   2.021  0.3162  0.3717  0.4295
  668SOL    HW1 2670   0.500   2.489   2.033  0.3559  0.7757 -0.0084
  668SOL    HW2 2671   0.376   2.575   2.023 -0.4039  0.1499  3.0079
  668SOL     MW 2672   0.414   2.496   2.023  0.0005 -0.0006 -0.0016
  669SOL     OW 2673   1.829   0.035   0.512 -0.1048 -0.5939  0.2571
  669SOL    HW1 2674   1.800  -0.015   0.588  0.2619 -1.7643 -0.3503
  669SOL    HW2 2675   1.820  -0.026   0.439 -0.3733  0.4838 -0.6289
  669SOL     MW 2676   1.824   0.021   0.512  0.0005 -0.0006 -0.0016
  670SOL     OW 2677   0.083   0.559   1.314  0.3217 -0.2576  0.3594
  670SOL    HW1 2678   0.126   0.549   1.399  0.2180 -0.7437  0.3589
  670SOL    HW2 2679   0.045   0.647   1.317  0.1336 -0.3513  0.9059
  670SOL     MW 2680   0.083   0.569   1.325  0.0005 -0.0006 -0.0016
  671SOL     OW 2681   2.675   0.475   0.850  0.7090  0.0712 -0.2583
  671SOL    HW1 2682   2.660   0.534   0.776  0.3124  0.5927  0.2344
  671SOL    HW2 2683   2.770   0.475   0.861  0.6495  1.3926  0.3607
  671SOL     MW 2684   2.686   0.482   0.842  0.0005 -0.0006 -0.0016
  672SOL     OW 2685   1.686   0.768   2.972  0.3294 -0.2560  0.5124
  672SOL    HW1 2686   1.711   0.709   2.901 -1.8891  0.4010 -0.9284
  672SOL    HW2 2687   1.767   0.813   2.996  1.2958 -1.0777 -1.0496
  672SOL     MW 2688   1.699   0.766   2.966  0.0005 -0.0006 -0.0016
  673SOL     OW 2689   2.500   1.602   2.241  0.4328 -0.0650  0.2941
  673SOL    HW1 2690   2.418   1.582   2.197  0.4328  1.7475 -0.6044
  673SOL    HW2 2691   2.475   1.655   2.317  0.5197 -2.3547  2.0252
  673SOL     MW 2692   2.486   1.606   2.245  0.0005 -0.0006 -0.0016
  674SOL     OW 2693   1.352   1.076   1.756  0.3014 -0.2863 -0.0700
  674SOL    HW1 2694   1.287   1.009   1.736  0.4528  0.0933 -2.0131
  674SOL    HW2 2695   1.411   1.035   1.820 -1.7093 -0.6825  1.6429
  674SOL     MW 2696   1.352   1.062   1.762  0.0005 -0.0006 -0.0016
  675SOL     OW 2697   2.713   2.826   1.568  0.7710 -0.4319 -0.4246
  675SOL    HW1 2698   2.670   2.892   1.513 -0.1671 -0.1080  0.6825
  675SOL    HW2 2699   2.788   2.798   1.515  0.7313  0.9247 -1.2687
  675SOL     MW 2700   2.717   2.831   1.554  0.0005 -0.0006 -0.0016
  676SOL     OW 2701   2.407   2.794   2.535 -0.2239  0.0418 -0.4957
  676SOL    HW1 2702   2.496   2.781   2.505 -0.0264  0.2091  0.0088
  676SOL    HW2 2703   2.357   2.813   2.455  0.7307  2.9617 -0.4797
  676SOL     MW 2704   2.412   2.794   2.521  0.0005 -0.0006 -0.0016
  677SOL     OW 2705   2.186   0.454   0.304 -0.1415 -0.3347  0.0131
  677SOL    HW1 2706   2.261   0.475   0.360 -0.5245 -0.6993  0.6800
  677SOL    HW2 2707   2.188   0.358   0.299 -0.3938 -0.3257 -0.2020
  677SOL     MW 2708   2.196   0.444   0.311  0.0005 -0.0006 -0.0016
  678SOL     OW 2709   1.068   2.323   2.052  0.0849 -0.0863  0.2020
  678SOL    HW1 2710   1.039   2.399   2.102  0.4708  1.7019 -2.1084
  678SOL    HW2 2711   1.147   2.353   2.007  1.6306 -2.6517  1.0058
  678SOL     MW 2712   1.075   2.336   2.052  0.0005 -0.0006 -0.0016
  679SOL     OW 2713   2.078   0.201   0.258 -0.3012 -0.2492 -0.0987
  679SOL    HW1 2714   2.153   0.146   0.237  0.4550  0.7418 -0.0744
  679SOL    HW2 2715   2.074   0.199   0.354  0.0216  0.1226 -0.0775
  679SOL     MW 2716   2.087   0.194   0.268  0.0005 -0.0006 -0.0016
  680SOL     OW 2717   1.292   2.254   3.132 -0.5590 -0.2144  0.1358
  680SOL    HW1 2718   1.263   2.169   3.097 -0.5611  0.0543 -0.5299
  680SOL    HW2 2719   1.271   2.317   3.063  1.9330 -0.0353 -0.5600
  680SOL     MW 2720   1.285   2.251   3.118  0.0005 -0.0006 -0.0016
  681SOL     OW 2721   2.120   2.313   2.717 -0.4040  0.1556 -0.0145
  681SOL    HW1 2722   2.158   2.394   2.750  0.9748  0.2076 -1.6165
  681SOL    HW2 2723   2.068   2.279   2.790  2.6585  0.1047  2.3059
  681SOL     MW 2724   2.118   2.319   2.730  0.0005 -0.0006 -0.0016
  682SOL     OW 2725   2.737   0.987   2.875 -0.2763  0.0093 -0.4467
  682SOL    HW1 2726   2.806   1.054   2.870  1.5771 -1.7982 -0.2222
  682SOL    HW2 2727   2.731   0.966   2.968 -1.5076  0.4594 -0.3980
  682SOL     MW 2728   2.745   0.993   2.887  0.0005 -0.0006 -0.0016
  683SOL     OW 2729   1.883   2.385   1.508 -0.1086  0.0822  0.2509
  683SOL    HW1 2730   1.899   2.299   1.547 -0.9444 -0.7148 -1.0968
  683SOL    HW2 2731   1.963   2.403   1.458 -0.2048 -0.2235 -0.0147
  683SOL     MW 2732   1.896   2.376   1.507  0.0005 -0.0006 -0.0016
  684SOL     OW 2733   1.132   1.188   2.302 -0.2899  0.5095 -0.3151
  684SOL    HW1 2734   1.049   1.182   2.348  0.2840 -0.4575  0.6360
  684SOL    HW2 2735   1.169   1.272   2.331  0.0990 -0.1182  1.0997
  684SOL     MW 2736   1.126   1.198   2.312  0.0005 -0.0006 -0.0016
  685SOL     OW 2737   1.087   2.438   2.469 -0.7487  0.4516  0.1092
  685SOL    HW1 2738   0.993   2.449   2.482 -0.7827  0.0182  0.2309
  685SOL    HW2 2739   1.102   2.344   2.478 -0.5629  0.2886 -1.5223
  685SOL     MW 2740   1.077   2.428   2.472  0.0005 -0.0006 -0.0016
  686SOL     OW 2741   2.727   2.142   2.150  0.0066  0.5205  0.3819
  686SOL    HW1 2742   2.757   2.106   2.067  0.1982  2.1803 -0.2997
  686SOL    HW2 2743   2.673   2.072   2.188 -0.0264 -0.2899 -1.0918
  686SOL     MW 2744   2.724   2.128   2.145  0.0005 -0.0006 -0.0016
  687SOL     OW 2745   0.171   0.710   2.293 -0.4801  0.2787 -0.2267
  687SOL    HW1 2746   0.231   0.710   2.367 -0.3742  0.8498 -0.3022
  687SOL    HW2 2747   0.226   0.686   2.218 -0.6739 -0.6997 -0.0606
  687SOL     MW 2748   0.186   0.707   2.293  0.0005 -0.0006 -0.0016
  688SOL     OW 2749   2.889   0.760   2.868 -0.0182  0.1559  0.2951
  688SOL    HW1 2750   2.842   0.843   2.869 -0.3944 -0.0625  0.7502
  688SOL    HW2 2751   2.900   0.740   2.775  0.1203  0.7366  0.1833
  688SOL     MW 2752   2.884   0.768   2.856  0.0005 -0.0006 -0.0016
  689SOL     OW 2753   1.166   1.493   0.515 -0.2280 -0.3623 -0.0994
  689SOL    HW1 2754   1.145   1.445   0.435 -2.0482  0.4445 -0.1468
  689SOL    HW2 2755   1.188   1.582   0.485 -0.9050 -0.0599  0.2700
  689SOL     MW 2756   1.166   1.499   0.501  0.0005 -0.0006 -0.0016
  690SOL     OW 2757   2.852   2.037   1.607 -0.5345 -0.2194 -0.1212
  690SOL    HW1 2758   2.840   1.985   1.527  0.5647 -1.3150  0.3917
  690SOL    HW2 2759   2.817   2.123   1.585 -1.5807 -0.9084 -1.3084
  690SOL     MW 2760   2.846   2.041   1.594  0.0005 -0.0006 -0.0016
  691SOL     OW 2761   2.310   0.058   0.144  0.5744  0.0331 -0.1138
  691SOL    HW1 2762   2.355   0.129   0.097  1.3013 -0.8891 -0.8556
  691SOL    HW2 2763   2.351  -0.022   0.111  1.2264 -0.6651  2.1952
  691SOL     MW 2764   2.321   0.057   0.133  0.0005 -0.0006 -0.0016
  692SOL     OW 2765   2.635   1.869   1.336 -0.3924 -0.1133 -0.1830
  692SOL    HW1 2766   2.573   1.867   1.263  0.6543 -0.5296 -1.0926
  692SOL    HW2 2767   2.614   1.949   1.384 -1.4199 -0.0927 -0.6426
  692SOL     MW 2768   2.625   1.879   1.333  0.0005 -0.0006 -0.0016
  693SOL     OW 2769   0.898   2.800   1.322 -0.2691 -0.0181 -0.7195
  693SOL    HW1 2770   0.865   2.855   1.393 -1.9267 -1.5315 -0.2422
  693SOL    HW2 2771   0.988   2.830   1.308 -1.0432  2.6453 -0.4068
  693SOL     MW 2772   0.905   2.811   1.330  0.0005 -0.0006 -0.0016
  694SOL     OW 2773   0.349   1.973   3.030  0.0356  0.2444  0.5705
  694SOL    HW1 2774   0.267   1.928   3.009  0.2635  0.0644  0.0459
  694SOL    HW2 2775   0.395   1.914   3.089 -0.0088  0.1417  0.5015
  694SOL     MW 2776   0.344   1.960   3.035  0.0005 -0.0006 -0.0016
  695SOL     OW 2777   1.429   1.419   0.295  0.1666  0.2143  0.1298
  695SOL    HW1 2778   1.346   1.430   0.249 -0.0686  0.1568  0.5441
  695SOL    HW2 2779   1.425   1.482   0.367  1.0064  1.1167 -0.5864
  695SOL     MW 2780   1.418   1.429   0.298  0.0005 -0.0006 -0.0016
  696SOL     OW 2781   0.641   1.607   2.213  0.4669 -0.4162  0.5058
  696SOL    HW1 2782   0.678   1.596   2.125  0.4236 -0.8450  0.5415
  696SOL    HW2 2783   0.706   1.567   2.271  1.7995  2.1803  0.9381
  696SOL     MW 2784   0.654   1.600   2.209  0.0005 -0.0006 -0.0016
  697SOL     OW 2785   2.300   0.250   3.055  0.1226 -0.1438  0.2196
  697SOL    HW1 2786   2.232   0.214   2.999  0.8752 -1.2101 -0.0478
  697SOL    HW2 2787   2.371   0.272   2.995  0.2290  0.4420  0.5551
  697SOL     MW 2788   2.300   0.248   3.040  0.0005 -0.0006 -0.0016
  698SOL     OW 2789   0.589   1.811   2.372 -0.0417 -0.3513  0.4552
  698SOL    HW1 2790   0.512   1.769   2.411 -1.1803 -0.2865 -1.5783
  698SOL    HW2 2791   0.616   1.750   2.303  0.1464  0.7821 -0.5172
  698SOL     MW 2792   0.582   1.798   2.368  0.0005 -0.0006 -0.0016
  699SOL     OW 2793   2.621   1.344   1.706  0.2526  0.4901  0.3670
  699SOL    HW1 2794   2.710   1.317   1.680  0.2968  0.2510  0.7657
  699SOL    HW2 2795   2.631   1.435   1.734  0.2960  0.5931  0.0219
  699SOL     MW 2796   2.634   1.353   1.706  0.0005 -0.0006 -0.0016
  700SOL     OW 2797   2.109   0.853   0.826 -0.8771 -0.0125  0.3672
  700SOL    HW1 2798   2.094   0.918   0.894  0.0744  0.4683  0.1378
  700SOL    HW2 2799   2.026   0.846   0.780 -0.9966  1.0279  0.4067
  700SOL     MW 2800   2.097   0.860   0.829  0.0005 -0.0006 -0.0016
  701SOL     OW 2801   2.749   1.799   0.282  0.0547 -0.3795 -0.1183
  701SOL    HW1 2802   2.798   1.734   0.232 -0.3714 -0.8392  0.0515
  701SOL    HW2 2803   2.662   1.761   0.291 -0.3959  0.5153 -0.5910
  701SOL     MW 2804   2.744   1.786   0.276  0.0005 -0.0006 -0.0016
  702SOL     OW 2805   0.498   1.144   0.060 -0.9477  0.0438  0.3176
  702SOL    HW1 2806   0.415   1.146   0.012 -0.0100  0.0406 -1.3827
  702SOL    HW2 2807   0.543   1.065   0.027 -0.3469 -0.0735  1.3659
  702SOL     MW 2808   0.493   1.134   0.050  0.0005 -0.0006 -0.0016
  703SOL     OW 2809   0.805   2.160   3.092  0.2016 -0.2444 -0.6094
  703SOL    HW1 2810   0.861   2.106   3.036 -0.9321 -0.3950 -1.6436
  703SOL    HW2 2811   0.740   2.100   3.126  1.3277 -0.3092  1.5723
  703SOL     MW 2812   0.804   2.146   3.089  0.0005 -0.0006 -0.0016
  704SOL     OW 2813   1.373   0.849   2.373  0.3192 -0.1589 -0.6805
  704SOL    HW1 2814   1.392   0.943   2.366 -0.7111  0.1949  0.8536
  704SOL    HW2 2815   1.293   0.837   2.321 -0.8476  0.2896  0.9286
  704SOL     MW 2816   1.365   0.860   2.366  0.0005 -0.0006 -0.0016
  705SOL     OW 2817   1.105   0.913   0.857 -0.1578  0.3873  0.1498
  705SOL    HW1 2818   1.122   1.007   0.856  1.0227  0.1883 -1.0591
  705SOL    HW2 2819   1.046   0.898   0.783 -0.1374  0.1422  0.1804
  705SOL     MW 2820   1.100   0.923   0.847  0.0005 -0.0006 -0.0016
  706SOL     OW 2821   2.897   0.063   2.757 -0.0223 -0.0676  0.6774
  706SOL    HW1 2822   2.948   0.122   2.701  0.1747 -0.5889  0.3019
  706SOL    HW2 2823   2.938   0.071   2.844  2.3868 -2.3774 -0.1327
  706SOL     MW 2824   2.909   0.071   2.761  0.0005 -0.0006 -0.0016
  707SOL     OW 2825   2.272   2.984   0.362 -0.4218  0.6153  0.4568
  707SOL    HW1 2826   2.274   3.046   0.289  1.4174  1.1002  0.8691
  707SOL    HW2 2827   2.284   2.898   0.321  0.8811  0.9091  0.1657
  707SOL     MW 2828   2.274   2.981   0.347  0.0005 -0.0006 -0.0016
  708SOL     OW 2829   0.417   2.910   2.742 -0.5452 -0.1458  0.1268
  708SOL    HW1 2830   0.381   2.996   2.719 -1.5505 -0.3546  0.8406
  708SOL    HW2 2831   0.359   2.878   2.811  1.4224 -0.2483  1.8106
  708SOL     MW 2832   0.405   2.917   2.748  0.0005 -0.0006 -0.0016
  709SOL     OW 2833   0.986   0.706   1.803  0.2836  0.0235 -0.1499
  709SOL    HW1 2834   1.058   0.654   1.839  0.3148  0.6701  0.7746
  709SOL    HW2 2835   0.967   0.770   1.872 -1.4522 -0.3885 -0.2100
  709SOL     MW 2836   0.993   0.708   1.817  0.0005 -0.0006 -0.0016
  710SOL     OW 2837   1.708   1.670   0.373 -0.2958 -0.0261 -0.2682
  710SOL    HW1 2838   1.681   1.652   0.283  1.2674 -0.0048 -0.7717
  710SOL    HW2 2839   1.776   1.605   0.392 -2.0510 -1.4139  1.6836
  710SOL     MW 2840   1.713   1.660   0.364  0.0005 -0.0006 -0.0016
  711SOL     OW 2841   1.103   0.116   2.432  0.5338 -0.1467  0.2008
  711SOL    HW1 2842   1.122   0.143   2.342  0.1723 -1.7841 -0.3951
  711SOL    HW2 2843   1.017   0.076   2.427 -0.5194  1.7778  1.7463
  711SOL     MW 2844   1.095   0.114   2.420  0.0005 -0.0006 -0.0016
  712SOL     OW 2845   1.993   1.863   2.070  0.2870 -0.1435  0.0209
  712SOL    HW1 2846   1.921   1.879   2.130 -1.4061 -1.3704 -1.5654
  712SOL    HW2 2847   2.019   1.951   2.041 -0.5764  0.3305  0.6218
  712SOL     MW 2848   1.987   1.876   2.074  0.0005 -0.0006 -0.0016
  713SOL     OW 2849   0.736   1.459   0.890  0.2438 -0.0681  0.3112
  713SOL    HW1 2850   0.665   1.452   0.954 -1.2040  0.3740 -1.1696
  713SOL    HW2 2851   0.729   1.549   0.857  0.6333 -0.4290 -0.8090
  713SOL     MW 2852   0.726   1.470   0.894  0.0005 -0.0006 -0.0016
  714SOL     OW 2853   2.764   2.359   2.526  0.5518  0.1993 -0.2128
  714SOL    HW1 2854   2.694   2.322   2.472  1.4590 -1.5890 -0.2641
  714SOL    HW2 2855   2.719   2.397   2.601 -0.5499  0.2177 -0.8568
  714SOL     MW 2856   2.750   2.359   2.529  0.0005 -0.0006 -0.0016
  715SOL     OW 2857   1.419   1.903   0.281  0.7970 -0.1882  0.1293
  715SOL    HW1 2858   1.424   1.996   0.303  0.5864 -0.4099  1.1627
  715SOL    HW2 2859   1.496   1.887   0.227  0.4068  0.7543 -0.7578
  715SOL     MW 2860   1.429   1.913   0.277  0.0005 -0.0006 -0.0016
  716SOL     OW 2861   0.460   1.353   2.419 -0.1802 -0.2089  0.4220
  716SOL    HW1 2862   0.406   1.414   2.368 -0.1488 -1.5412 -1.2999
  716SOL    HW2 2863   0.401   1.321   2.488 -0.2784  1.4967  1.1830
  716SOL     MW 2864   0.445   1.357   2.422  0.0005 -0.0006 -0.0016
  717SOL     OW 2865   2.891   2.249   2.711  0.2427 -0.0557 -0.1668
  717SOL    HW1 2866   2.854   2.306   2.644 -1.1201 -0.0840  0.5368
  717SOL    HW2 2867   2.973   2.217   2.672 -1.7394 -2.1837 -2.9463
  717SOL     MW 2868   2.897   2.252   2.697  0.0005 -0.0006 -0.0016
  718SOL     OW 2869   1.934   1.075   2.702  0.1274  0.3546  0.4161
  718SOL    HW1 2870   1.923   1.168   2.722 -2.6913  0.2322 -0.1093
  718SOL    HW2 2871   1.854   1.034   2.735  1.7181 -2.0867  1.5114
  718SOL     MW 2872   1.922   1.082   2.709  0.0005 -0.0006 -0.0016
  719SOL     OW 2873   1.936   0.642   0.190 -0.3696 -0.0269 -0.1524
  719SOL    HW1 2874   1.940   0.607   0.279  0.1887 -1.9109 -0.8814
  719SOL    HW2 2875   1.842   0.648   0.171 -0.4978  0.6205  0.6344
  719SOL     MW 2876   1.924   0.638   0.199  0.0005 -0.0006 -0.0016
  720SOL     OW 2877   2.652   2.692   2.435  0.0569 -0.2392 -0.7597
  720SOL    HW1 2878   2.692   2.717   2.352 -0.3659  0.3295 -0.7953
  720SOL    HW2 2879   2.717   2.717   2.501  0.8261 -1.5899 -0.9591
  720SOL     MW 2880   2.666   2.698   2.433  0.0005 -0.0006 -0.0016
  721SOL     OW 2881   0.771   1.470   0.267  0.8832 -0.4528 -0.1860
  721SOL    HW1 2882   0.792   1.558   0.237 -2.6115 -0.0312 -1.9696
  721SOL    HW2 2883   0.789   1.414   0.191  0.9295 -0.9202  0.1659
  721SOL     MW 2884   0.776   1.474   0.253  0.0005 -0.0006 -0.0016
  722SOL     OW 2885   0.291   2.899   1.753  0.2315 -0.0870  0.3480
  722SOL    HW1 2886   0.370   2.892   1.806  1.1831 -0.7422 -1.1151
  722SOL    HW2 2887   0.248   2.814   1.762 -0.2718  0.2317  1.0552
  722SOL     MW 2888   0.295   2.888   1.761  0.0005 -0.0006 -0.0016
  723SOL     OW 2889   1.940   1.816   0.741 -0.1032  0.0887  0.1476
  723SOL    HW1 2890   1.913   1.819   0.649  2.1282 -0.7442 -0.6130
  723SOL    HW2 2891   1.864   1.782   0.788 -0.8869 -0.6733 -1.5966
  723SOL     MW 2892   1.927   1.812   0.735  0.0005 -0.0006 -0.0016
  724SOL     OW 2893   2.547   1.698   0.602 -0.1271 -0.7260 -0.6715
  724SOL    HW1 2894   2.538   1.612   0.562  1.5472 -1.0281 -0.4900
  724SOL    HW2 2895   2.521   1.685   0.693 -1.8931 -0.5209 -1.1041
  724SOL     MW 2896   2.543   1.686   0.609  0.0005 -0.0006 -0.0016
  725SOL     OW 2897   0.933  -0.031   0.191  0.4102 -0.2247  0.4390
  725SOL    HW1 2898   0.964   0.043   0.139  0.7960 -1.3556 -0.9997
  725SOL    HW2 2899   0.890   0.010   0.266  0.2565  1.4710 -0.5009
  725SOL     MW 2900   0.931  -0.016   0.194  0.0005 -0.0006 -0.0016
  726SOL     OW 2901   0.109   3.013   1.983  0.0877 -0.1804  0.1078
  726SOL    HW1 2902   0.149   3.072   2.047  0.4317  0.3020 -0.5402
  726SOL    HW2 2903   0.058   3.070   1.926 -1.0699 -0.7257  0.5658
  726SOL     MW 2904   0.108   3.028   1.984  0.0005 -0.0006 -0.0016
  727SOL     OW 2905   1.509   0.941   1.099 -0.2723 -0.5516 -0.2818
  727SOL    HW1 2906   1.512   0.893   1.182 -1.7212  0.0455  0.1585
  727SOL    HW2 2907   1.440   0.897   1.048  0.0564 -0.4237 -0.8457
  727SOL     MW 2908   1.500   0.929   1.103  0.0005 -0.0006 -0.0016
  728SOL     OW 2909   2.830   2.044   1.890 -0.2682 -0.0344  0.0359
  728SOL    HW1 2910   2.852   2.137   1.897  0.7024 -0.3555  2.1336
  728SOL    HW2 2911   2.837   2.025   1.797  0.3422  1.8019 -0.3488
  728SOL     MW 2912   2.834   2.054   1.879  0.0005 -0.0006 -0.0016
  729SOL     OW 2913   2.029   2.512   1.149 -0.2192  0.0938 -0.0162
  729SOL    HW1 2914   2.002   2.451   1.080  3.1482 -1.0147 -0.5255
  729SOL    HW2 2915   2.089   2.461   1.203  0.2337  2.0811  1.4486
  729SOL     MW 2916   2.033   2.497   1.147  0.0005 -0.0006 -0.0016
  730SOL     OW 2917   1.952   2.252   0.501 -0.2829  0.0070 -0.5732
  730SOL    HW1 2918   1.970   2.207   0.418 -1.8964  1.8087 -1.9896
  730SOL    HW2 2919   2.003   2.333   0.495 -0.7182  0.3283  0.0023
  730SOL     MW 2920   1.961   2.256   0.490  0.0005 -0.0006 -0.0016
  731SOL     OW 2921   0.234   0.550   2.866  0.1475 -0.0349 -0.4188
  731SOL    HW1 2922   0.184   0.626   2.896  1.1278  1.2369 -1.8619
  731SOL    HW2 2923   0.256   0.503   2.946 -1.2754  0.6805  0.4362
  731SOL     MW 2924   0.230   0.554   2.880  0.0005 -0.0006 -0.0016
  732SOL     OW 2925   2.658   1.009   0.318  0.0755  0.0103 -0.0088
  732SOL    HW1 2926   2.701   1.022   0.233  0.9617 -0.2900  0.3746
  732SOL    HW2 2927   2.728   1.022   0.382 -0.8518  1.5365  0.7601
  732SOL     MW 2928   2.673   1.012   0.316  0.0005 -0.0006 -0.0016
  733SOL     OW 2929   0.391   2.154   1.000  0.4390  0.0110 -0.1144
  733SOL    HW1 2930   0.437   2.071   0.985 -0.4944 -0.5422 -0.0219
  733SOL    HW2 2931   0.405   2.204   0.920 -0.5710 -1.0251 -0.9761
  733SOL     MW 2932   0.398   2.149   0.988  0.0005 -0.0006 -0.0016
  734SOL     OW 2933   1.548   2.264   1.640  0.1835 -0.3332 -0.2770
  734SOL    HW1 2934   1.638   2.241   1.660  0.1440 -0.1149  0.1719
  734SOL    HW2 2935   1.497   2.186   1.663  0.2270 -0.3640 -0.2862
  734SOL     MW 2936   1.553   2.251   1.646  0.0005 -0.0006 -0.0016
  735SOL     OW 2937   0.512   0.341   2.184 -0.5459 -0.5496 -0.5809
  735SOL    HW1 2938   0.552   0.387   2.111  1.1133 -1.1082 -0.0714
  735SOL    HW2 2939   0.421   0.330   2.159 -0.8881  2.4242 -0.9819
  735SOL     MW 2940   0.505   0.345   2.172  0.0005 -0.0006 -0.0016
  736SOL     OW 2941   2.932   2.283   1.857  0.2377 -0.1210 -0.6647
  736SOL    HW1 2942   2.881   2.357   1.893 -0.5938 -0.3388 -1.3654
  736SOL    HW2 2943   2.934   2.299   1.763  1.7485  0.0354 -0.6229
  736SOL     MW 2944   2.926   2.295   1.850  0.0005 -0.0006 -0.0016
  737SOL     OW 2945   1.429   2.065   1.002 -0.0367 -0.1378  0.6738
  737SOL    HW1 2946   1.363   1.997   1.009 -1.5885  1.3376  1.1199
  737SOL    HW2 2947   1.502   2.034   1.055 -0.6297 -1.5054  0.7252
  737SOL     MW 2948   1.430   2.052   1.010  0.0005 -0.0006 -0.0016
  738SOL     OW 2949   0.481   2.114   0.537 -0.2968 -0.1823 -0.1067
  738SOL    HW1 2950   0.465   2.094   0.444 -0.4272 -0.5754  0.0014
  738SOL    HW2 2951   0.485   2.029   0.580 -2.4773  0.0290  0.6425
  738SOL     MW 2952   0.480   2.101   0.530  0.0005 -0.0006 -0.0016
  739SOL     OW 2953   0.837   0.118   1.301 -0.2766  0.1555  0.3570
  739SOL    HW1 2954   0.761   0.116   1.243 -0.4125  1.6056  0.4684
  739SOL    HW2 2955   0.913   0.121   1.242  0.0185 -4.6069  0.0959
  739SOL     MW 2956   0.837   0.118   1.286  0.0005 -0.0006 -0.0016
  740SOL     OW 2957   2.013   2.795   0.825 -0.8293  0.4649  0.4698
  740SOL    HW1 2958   2.092   2.764   0.868  1.0411  0.0551 -2.8843
  740SOL    HW2 2959   1.965   2.715   0.803 -1.2441  0.5955  0.9033
  740SOL     MW 2960   2.017   2.781   0.827  0.0005 -0.0006 -0.0016
  741SOL     OW 2961   1.274   0.050   0.786 -0.1989  0.0990 -0.2391
  741SOL    HW1 2962   1.260   0.144   0.782 -1.1643 -0.0484 -0.4664
  741SOL    HW2 2963   1.208   0.017   0.847  1.2917 -0.2326  1.2837
  741SOL     MW 2964   1.264   0.058   0.793  0.0005 -0.0006 -0.0016
  742SOL     OW 2965   1.640   0.721   1.234 -0.3118  0.2064  0.1381
  742SOL    HW1 2966   1.628   0.777   1.311  2.4255 -1.2730  1.7881
  742SOL    HW2 2967   1.724   0.678   1.249  0.1282 -0.4811 -3.5322
  742SOL     MW 2968   1.649   0.722   1.246  0.0005 -0.0006 -0.0016
  743SOL     OW 2969   2.709   1.501   2.811 -0.1017 -0.6756  0.2970
  743SOL    HW1 2970   2.723   1.477   2.720 -1.1315  1.5029 -0.5075
  743SOL    HW2 2971   2.622   1.466   2.832 -0.9172  0.8346 -0.3760
  743SOL     MW 2972   2.699   1.494   2.802  0.0005 -0.0006 -0.0016
  744SOL     OW 2973   0.955   2.012   2.939  0.2925  0.3616  0.6262
  744SOL    HW1 2974   0.889   1.949   2.911  1.6361 -2.0276  2.4341
  744SOL    HW2 2975   0.976   2.062   2.860 -1.8504 -0.5003 -0.5513
  744SOL     MW 2976   0.950   2.011   2.925  0.0005 -0.0006 -0.0016
  745SOL     OW 2977   1.515   1.157   0.270  0.2004 -0.1721 -0.2906
  745SOL    HW1 2978   1.520   1.092   0.340  0.3116 -0.0830 -0.2165
  745SOL    HW2 2979   1.481   1.235   0.313  1.0158  0.1243 -0.1673
  745SOL     MW 2980   1.511   1.158   0.285  0.0005 -0.0006 -0.0016
  746SOL     OW 2981   0.136   0.956   2.903 -0.2461 -0.2471 -0.6321
  746SOL    HW1 2982   0.218   0.907   2.901  0.0065  0.1078 -2.9802
  746SOL    HW2 2983   0.076   0.903   2.955  0.9416 -1.4328 -0.4258
  746SOL     MW 2984   0.139   0.943   2.909  0.0005 -0.0006 -0.0016
  747SOL     OW 2985   2.883   0.207   0.679  0.7550  0.6330 -0.1515
  747SOL    HW1 2986   2.909   0.189   0.588  0.6658 -0.5075  0.0342
  747SOL    HW2 2987   2.808   0.266   0.672  0.2732 -0.0419 -0.8521
  747SOL     MW 2988   2.877   0.212   0.666  0.0005 -0.0006 -0.0016
  748SOL     OW 2989   2.600   2.679   1.780 -0.3491 -0.6380  0.3685
  748SOL    HW1 2990   2.516   2.726   1.771 -0.0934  0.0435  1.4179
  748SOL    HW2 2991   2.654   2.716   1.710 -0.2636  0.4386  0.9697
  748SOL     MW 2992   2.596   2.690   1.770  0.0005 -0.0006 -0.0016
  749SOL     OW 2993   1.142   0.198   1.768  0.3695 -0.1165 -0.0692
  749SOL    HW1 2994   1.231   0.165   1.778  0.2242 -0.0602  1.6994
  749SOL    HW2 2995   1.140   0.234   1.680  2.9969  2.5264  0.7953
  749SOL     MW 2996   1.153   0.198   1.758  0.0005 -0.0006 -0.0016
  750SOL     OW 2997   1.660   2.132   0.595 -0.5859 -0.0589 -0.5428
  750SOL    HW1 2998   1.735   2.157   0.650 -1.6505  0.1011  0.8803
  750SOL    HW2 2999   1.690   2.054   0.549  0.7993  0.5616 -0.7426
  750SOL     MW 3000   1.674   2.126   0.596  0.0005 -0.0006 -0.0016
  751SOL     OW 3001   1.559   2.963   1.738  0.4965 -0.9807  0.8927
  751SOL    HW1 3002   1.522   2.973   1.650  0.8106  0.8897  0.9261
  751SOL    HW2 3003   1.654   2.959   1.723  0.6623  0.8691  1.1893
  751SOL     MW 3004   1.566   2.964   1.725  0.0005 -0.0006 -0.0016
  752SOL     OW 3005   0.683   2.344   0.554 -0.2057 -0.1384 -0.0158
  752SOL    HW1 3006   0.624   2.271   0.535 -0.0578  0.0383 -1.2684
  752SOL    HW2 3007   0.694   2.388   0.470  0.6514  0.6257  0.4775
  752SOL     MW 3008   0.677   2.340   0.541  0.0005 -0.0006 -0.0016
  753SOL     OW 3009   1.343   2.625   2.586 -0.3071 -0.5902 -0.1123
  753SOL    HW1 3010   1.382   2.673   2.659  2.2038 -2.7701  0.1304
  753SOL    HW2 3011   1.371   2.673   2.508  0.7703 -0.7023  0.1900
  753SOL     MW 3012   1.351   2.637   2.585  0.0005 -0.0006 -0.0016
  754SOL     OW 3013   1.786   0.277   0.806 -0.2083 -0.0655  0.5996
  754SOL    HW1 3014   1.852   0.336   0.769  1.2129 -1.3388  0.9875
  754SOL    HW2 3015   1.723   0.265   0.736  1.7250 -1.3751 -1.0463
  754SOL     MW 3016   1.787   0.283   0.793  0.0005 -0.0006 -0.0016
  755SOL     OW 3017   0.857   1.995   2.517 -0.0767 -0.5298 -0.2364
  755SOL    HW1 3018   0.822   1.908   2.537  0.6423 -0.5670  0.9480
  755SOL    HW2 3019   0.780   2.052   2.514 -0.4974 -1.0969 -0.4593
  755SOL     MW 3020   0.843   1.991   2.519  0.0005 -0.0006 -0.0016
  756SOL     OW 3021   2.697   2.809   1.147  0.2936 -0.4229  0.4679
  756SOL    HW1 3022   2.783   2.773   1.129  0.9550  2.2619 -2.7948
  756SOL    HW2 3023   2.713   2.877   1.213  0.1542 -1.6213  1.7776
  756SOL     MW 3024   2.710   2.813   1.153  0.0005 -0.0006 -0.0016
  757SOL     OW 3025   1.501   2.932   0.009  0.0605  0.2472  0.0151
  757SOL    HW1 3026   1.412   2.920  -0.024 -0.2283 -0.2818  0.9468
  757SOL    HW2 3027   1.516   2.857   0.065  0.9200  0.5884  0.2606
  757SOL     MW 3028   1.492   2.921   0.012  0.0005 -0.0006 -0.0016
  758SOL     OW 3029   2.205   2.741   1.007  0.1521 -0.5295 -0.2670
  758SOL    HW1 3030   2.143   2.797   1.053  0.6207  0.8631 -1.2735
  758SOL    HW2 3031   2.207   2.660   1.058 -0.6611  0.3048  1.1338
  758SOL     MW 3032   2.198   2.738   1.019  0.0005 -0.0006 -0.0016
  759SOL     OW 3033   1.276   1.022   0.299  0.6357  0.0971  0.1272
  759SOL    HW1 3034   1.305   0.942   0.343  0.8014  1.0249  1.7722
  759SOL    HW2 3035   1.354   1.056   0.256  1.0430  0.3820  1.0614
  759SOL     MW 3036   1.289   1.016   0.299  0.0005 -0.0006 -0.0016
  760SOL     OW 3037   2.529   2.522   0.791 -0.2659 -0.0550  0.2483
  760SOL    HW1 3038   2.463   2.507   0.859 -0.6445 -1.8030 -0.4562
  760SOL    HW2 3039   2.480   2.520   0.709  0.4566  0.0453 -0.1920
  760SOL     MW 3040   2.514   2.519   0.789  0.0005 -0.0006 -0.0016
  761SOL     OW 3041   3.042   1.693   1.199  0.4053 -0.1004  0.0560
  761SOL    HW1 3042   3.116   1.690   1.260  0.6775  0.3110 -0.2511
  761SOL    HW2 3043   3.068   1.757   1.132  0.4984 -1.2168 -1.0016
  761SOL     MW 3044   3.054   1.701   1.198  0.0005 -0.0006 -0.0016
  762SOL     OW 3045   1.212   2.883   3.094  0.4042  0.1557 -0.8984
  762SOL    HW1 3046   1.163   2.820   3.146 -0.1664  1.4868  0.2459
  762SOL    HW2 3047   1.186   2.866   3.003  0.2616 -1.2078 -0.6247
  762SOL     MW 3048   1.203   2.873   3.089  0.0005 -0.0006 -0.0016
  763SOL     OW 3049   2.401   1.093   1.157 -0.1265 -0.1306  0.0616
  763SOL    HW1 3050   2.311   1.115   1.181  0.2770 -0.2640  1.8499
  763SOL    HW2 3051   2.410   1.000   1.181  0.6201  0.0087  0.3395
  763SOL     MW 3052   2.391   1.084   1.163  0.0005 -0.0006 -0.0016
  764SOL     OW 3053   1.733   0.313   1.204 -0.0932 -0.0332  0.1450
  764SOL    HW1 3054   1.784   0.367   1.144 -2.0278  1.3081 -0.4084
  764SOL    HW2 3055   1.696   0.376   1.267  0.2853 -1.1585  1.5481
  764SOL     MW 3056   1.735   0.328   1.205  0.0005 -0.0006 -0.0016
  765SOL     OW 3057   1.101   1.386   2.681 -0.0567  0.5751 -0.0432
  765SOL    HW1 3058   1.080   1.464   2.632 -2.8723 -0.2240 -0.2756
  765SOL    HW2 3059   1.104   1.415   2.772 -0.8844  1.0201 -0.1461
  765SOL     MW 3060   1.099   1.399   2.687  0.0005 -0.0006 -0.0016
  766SOL     OW 3061   2.045   1.495   0.304  0.2636  0.1039  0.3616
  766SOL    HW1 3062   1.999   1.414   0.281 -0.4109  0.4644  0.4273
  766SOL    HW2 3063   2.125   1.492   0.252  0.3205 -0.6807  0.4814
  766SOL     MW 3064   2.049   1.484   0.294  0.0005 -0.0006 -0.0016
  767SOL     OW 3065   2.237   1.403   0.901 -0.0898  0.2593  0.3143
  767SOL    HW1 3066   2.253   1.338   0.832 -1.3996 -1.1403  1.2822
  767SOL    HW2 3067   2.202   1.479   0.854 -0.2933 -0.4033 -0.6292
  767SOL     MW 3068   2.235   1.404   0.886  0.0005 -0.0006 -0.0016
  768SOL     OW 3069   1.589   1.825   0.079 -0.3521 -0.3532  0.1287
  768SOL    HW1 3070   1.524   1.868   0.025  0.0248  0.5777  0.3926
  768SOL    HW2 3071   1.574   1.731   0.066 -0.3862 -0.1476 -1.4244
  768SOL     MW 3072   1.579   1.819   0.070  0.0005 -0.0006 -0.0016
  769SOL     OW 3073   3.018   2.492   0.689  0.3050 -0.1772  0.3078
  769SOL    HW1 3074   2.975   2.470   0.607 -0.7359  0.3685  0.6842
  769SOL    HW2 3075   3.103   2.448   0.685 -0.3392 -1.4123 -0.4100
  769SOL     MW 3076   3.023   2.483   0.678  0.0005 -0.0006 -0.0016
  770SOL     OW 3077   0.837   0.841   2.269 -0.1210  0.3357 -0.2857
  770SOL    HW1 3078   0.885   0.759   2.278 -0.9273 -0.0789  0.2994
  770SOL    HW2 3079   0.885   0.889   2.201  1.6989  0.3590  0.9299
  770SOL     MW 3080   0.849   0.837   2.261  0.0005 -0.0006 -0.0016
  771SOL     OW 3081   0.139   0.549   0.258 -0.1695  0.4509 -0.1243
  771SOL    HW1 3082   0.213   0.493   0.281  1.1014  0.8075 -2.9486
  771SOL    HW2 3083   0.124   0.531   0.165 -2.9285  1.2435  0.1024
  771SOL     MW 3084   0.147   0.539   0.249  0.0005 -0.0006 -0.0016
  772SOL     OW 3085   0.727   1.457   2.509  0.1711  0.1368  0.0693
  772SOL    HW1 3086   0.644   1.422   2.478 -0.2081  1.2964 -0.2685
  772SOL    HW2 3087   0.764   1.386   2.562  0.5395 -1.6473 -2.4282
  772SOL     MW 3088   0.721   1.443   2.512  0.0005 -0.0006 -0.0016
  773SOL     OW 3089   1.131   2.057   2.156 -0.1701  0.4214  0.3683
  773SOL    HW1 3090   1.058   2.006   2.118  0.8502 -0.9670  0.2065
  773SOL    HW2 3091   1.128   2.140   2.109  0.5901 -0.9651 -2.3563
  773SOL     MW 3092   1.121   2.061   2.145  0.0005 -0.0006 -0.0016
  774SOL     OW 3093   0.019   2.601   3.003 -0.0252 -0.3417 -0.4199
  774SOL    HW1 3094   0.058   2.587   3.089 -3.5791 -0.7805  1.3300
  774SOL    HW2 3095   0.028   2.695   2.986  1.4656 -0.3984 -0.0074
  774SOL     MW 3096   0.025   2.611   3.012  0.0005 -0.0006 -0.0016
  775SOL     OW 3097   2.972   3.112   1.127  0.4241 -0.2771 -0.3637
  775SOL    HW1 3098   3.042   3.097   1.190  0.5513 -0.6242 -0.5847
  775SOL    HW2 3099   3.014   3.108   1.041  0.1072 -0.6608 -0.5052
  775SOL     MW 3100   2.986   3.110   1.124  0.0005 -0.0006 -0.0016
  776SOL     OW 3101   2.231   2.139   3.054  0.2202  0.4432  0.2530
  776SOL    HW1 3102   2.252   2.060   3.004 -2.1102  0.5961 -1.0976
  776SOL    HW2 3103   2.248   2.115   3.145  0.3367 -1.3366 -0.2099
  776SOL     MW 3104   2.236   2.126   3.059  0.0005 -0.0006 -0.0016
  777SOL     OW 3105   1.588   0.989   1.962 -0.3330 -0.3341  0.2058
  777SOL    HW1 3106   1.609   1.013   1.872  0.5160 -1.2179  0.1583
  777SOL    HW2 3107   1.551   1.069   2.000 -0.5554  0.0859 -0.8746
  777SOL     MW 3108   1.586   1.002   1.956  0.0005 -0.0006 -0.0016
  778SOL     OW 3109   0.742   1.225   1.564  0.3391  0.1563 -0.0493
  778SOL    HW1 3110   0.789   1.186   1.637 -0.8665 -1.8036 -0.2342
  778SOL    HW2 3111   0.656   1.248   1.601  0.7924  2.1011 -0.1167
  778SOL     MW 3112   0.737   1.223   1.578  0.0005 -0.0006 -0.0016
  779SOL     OW 3113   0.448   0.754   0.116  0.0647  0.1389  0.1382
  779SOL    HW1 3114   0.353   0.764   0.113 -0.0219 -0.7681 -1.6943
  779SOL    HW2 3115   0.461   0.661   0.137  0.4981 -0.0822 -1.0488
  779SOL     MW 3116   0.437   0.743   0.118  0.0005 -0.0006 -0.0016
  780SOL     OW 3117   1.027   2.167   2.720  0.3243 -0.1330  0.2902
  780SOL    HW1 3118   1.105   2.222   2.723 -0.7475  1.6789 -1.8323
  780SOL    HW2 3119   1.036   2.116   2.639  0.1341 -1.3142  0.9771
  780SOL     MW 3120   1.038   2.167   2.710  0.0005 -0.0006 -0.0016
  781SOL     OW 3121   2.794   2.588   2.857  0.1481 -0.0151  0.3509
  781SOL    HW1 3122   2.743   2.518   2.815  1.1248 -0.2079 -0.5512
  781SOL    HW2 3123   2.885   2.569   2.832  0.7975 -0.1753  2.5987
  781SOL     MW 3124   2.799   2.576   2.848  0.0005 -0.0006 -0.0016
  782SOL     OW 3125   0.409   0.841   2.921  0.2716 -0.2055 -0.4384
  782SOL    HW1 3126   0.456   0.795   2.990  0.4692 -0.8668 -1.0043
  782SOL    HW2 3127   0.387   0.773   2.857 -1.3462  0.1014 -0.2546
  782SOL     MW 3128   0.412   0.826   2.922  0.0005 -0.0006 -0.0016
  783SOL     OW 3129   0.835   0.941   2.954 -0.6437 -0.1143 -0.5903
  783SOL    HW1 3130   0.886   0.864   2.928 -0.0434 -0.2170  0.7960
  783SOL    HW2 3131   0.802   0.920   3.042 -1.5591  0.6872 -0.7248
  783SOL     MW 3132   0.838   0.929   2.962  0.0005 -0.0006 -0.0016
  784SOL     OW 3133   2.432   2.440   1.955 -0.3431 -0.0808 -0.2848
  784SOL    HW1 3134   2.435   2.518   2.011 -0.0793  1.4314 -2.2948
  784SOL    HW2 3135   2.369   2.462   1.887  0.2712 -1.3574 -1.3160
  784SOL     MW 3136   2.424   2.453   1.954  0.0005 -0.0006 -0.0016
  785SOL     OW 3137   0.393   3.137   0.598  0.4212  0.2449 -0.0510
  785SOL    HW1 3138   0.441   3.080   0.657  0.0148 -0.2185 -0.1571
  785SOL    HW2 3139   0.306   3.097   0.591 -0.0669  1.2026  0.3366
  785SOL     MW 3140   0.388   3.125   0.605  0.0005 -0.0006 -0.0016
  786SOL     OW 3141   2.737   2.931   0.472 -0.2380 -0.0851 -0.3744
  786SOL    HW1 3142   2.672   2.996   0.498 -0.0257 -0.3190  0.7985
  786SOL    HW2 3143   2.686   2.853   0.449 -0.4673  0.3421 -1.3768
  786SOL     MW 3144   2.722   2.929   0.472  0.0005 -0.0006 -0.0016
  787SOL     OW 3145   2.680   1.775   2.049  0.4703  0.5560 -0.3118
  787SOL    HW1 3146   2.755   1.726   2.018 -0.6988 -1.2542 -0.4189
  787SOL    HW2 3147   2.636   1.716   2.110 -0.6866  1.6877 -0.0095
  787SOL     MW 3148   2.684   1.761   2.053  0.0005 -0.0006 -0.0016
  788SOL     OW 3149   2.341   2.378   0.622 -0.3125  0.3980 -0.4510
  788SOL    HW1 3150   2.333   2.284   0.607  0.2023  0.5022 -1.4239
  788SOL    HW2 3151   2.253   2.412   0.606 -0.4133  0.1345 -0.4621
  788SOL     MW 3152   2.329   2.370   0.618  0.0005 -0.0006 -0.0016
  789SOL     OW 3153   0.849   2.904   1.763 -0.1131 -0.5148 -0.5125
  789SOL    HW1 3154   0.944   2.893   1.770  0.1951 -1.6312 -4.1020
  789SOL    HW2 3155   0.837   2.957   1.683 -2.5199  0.9302  0.6834
  789SOL     MW 3156   0.860   2.910   1.753  0.0005 -0.0006 -0.0016
  790SOL     OW 3157   1.404   2.858   1.131  0.0506 -0.1906  0.4075
  790SOL    HW1 3158   1.491   2.820   1.116 -0.9805 -2.1107 -1.2878
  790SOL    HW2 3159   1.416   2.951   1.115  1.1922 -0.7918 -3.4247
  790SOL     MW 3160   1.417   2.865   1.127  0.0005 -0.0006 -0.0016
  791SOL     OW 3161   2.564   1.777   2.647  0.2522 -0.0445 -0.0544
  791SOL    HW1 3162   2.577   1.872   2.645  1.9765 -0.2376 -2.3299
  791SOL    HW2 3163   2.652   1.741   2.657 -0.1092 -1.3793 -1.3154
  791SOL     MW 3164   2.577   1.784   2.648  0.0005 -0.0006 -0.0016
  792SOL     OW 3165   1.988   2.479   2.433  0.0523  0.4105 -0.4638
  792SOL    HW1 3166   1.938   2.432   2.367 -0.5776  1.0657 -0.4711
  792SOL    HW2 3167   1.924   2.500   2.502  0.5974  0.1310  0.1422
  792SOL     MW 3168   1.974   2.476   2.434  0.0005 -0.0006 -0.0016
  793SOL     OW 3169   0.044   1.615   1.632 -0.5499 -0.3554 -0.1905
  793SOL    HW1 3170  -0.036   1.594   1.680  0.9128 -0.4566  2.3489
  793SOL    HW2 3171   0.099   1.538   1.641  0.3956  0.2370 -0.7243
  793SOL     MW 3172   0.041   1.603   1.639  0.0005 -0.0006 -0.0016
  794SOL     OW 3173   2.892   1.971   3.037 -0.0947  0.2008 -0.2173
  794SOL    HW1 3174   2.810   1.921   3.033 -0.7144  0.7838  2.8022
  794SOL    HW2 3175   2.865   2.062   3.028  0.5307  0.2853 -1.4312
  794SOL     MW 3176   2.878   1.976   3.036  0.0005 -0.0006 -0.0016
  795SOL     OW 3177   2.047   1.962   2.746  0.1553  0.5747 -0.1285
  795SOL    HW1 3178   2.093   1.878   2.740 -1.3469 -0.1848 -2.4781
  795SOL    HW2 3179   2.075   2.010   2.668 -0.8457  1.2256 -0.0999
  795SOL     MW 3180   2.056   1.957   2.735  0.0005 -0.0006 -0.0016
  796SOL     OW 3181   2.001   0.521   1.694  0.0140  0.7189  0.0636
  796SOL    HW1 3182   2.058   0.594   1.668  0.8892 -0.1687 -0.5589
  796SOL    HW2 3183   2.041   0.487   1.774 -1.1205  1.7023  1.0900
  796SOL     MW 3184   2.014   0.526   1.701  0.0005 -0.0006 -0.0016
  797SOL     OW 3185   0.981   0.674   0.214 -0.3402  0.1754 -0.6229
  797SOL    HW1 3186   1.064   0.671   0.166 -0.6520  0.2226 -1.1755
  797SOL    HW2 3187   0.945   0.760   0.193  0.2356  0.8446  0.9403
  797SOL     MW 3188   0.987   0.685   0.205  0.0005 -0.0006 -0.0016
  798SOL     OW 3189   1.506   1.651   1.251  0.1806 -0.6786  0.2179
  798SOL    HW1 3190   1.445   1.624   1.182  1.0957  0.2591 -1.0141
  798SOL    HW2 3191   1.547   1.570   1.280  0.1635 -1.0441 -0.7291
  798SOL     MW 3192   1.504   1.637   1.246  0.0005 -0.0006 -0.0016
  799SOL     OW 3193   2.688   0.100   1.089  0.3844 -0.1892 -0.2320
  799SOL    HW1 3194   2.684   0.017   1.136  2.7914 -0.4388 -0.3636
  799SOL    HW2 3195   2.774   0.101   1.047  0.3455  2.2601 -0.4436
  799SOL     MW 3196   2.698   0.090   1.090  0.0005 -0.0006 -0.0016
  800SOL     OW 3197   0.518   1.458   0.233  0.0694 -0.2989  0.2214
  800SOL    HW1 3198   0.606   1.420   0.227  0.7356  1.0715  0.8086
  800SOL    HW2 3199   0.526   1.527   0.299 -1.2150  0.4720 -0.3837
  800SOL     MW 3200   0.531   1.462   0.241  0.0005 -0.0006 -0.0016
  801SOL     OW 3201   2.159   0.702   2.731 -0.0402 -0.2353 -0.3944
  801SOL    HW1 3202   2.102   0.733   2.660  0.3034 -1.8905 -1.4445
  801SOL    HW2 3203   2.130   0.613   2.748  3.5028 -2.0059 -2.4943
  801SOL     MW 3204   2.148   0.695   2.724  0.0005 -0.0006 -0.0016
  802SOL     OW 3205   3.078   1.674   2.492 -0.5293 -0.3104 -0.2271
  802SOL    HW1 3206   3.133   1.632   2.427  0.0775  0.0150  0.0694
  802SOL    HW2 3207   3.007   1.715   2.442 -0.0995 -0.1099 -0.6713
  802SOL     MW 3208   3.076   1.673   2.478  0.0005 -0.0006 -0.0016
  803SOL     OW 3209   0.048   2.427   1.181  0.1745  0.3765  0.3852
  803SOL    HW1 3210   0.080   2.337   1.191  0.9191  0.6417  0.4705
  803SOL    HW2 3211  -0.000   2.425   1.098 -0.0805 -0.1718  0.5383
  803SOL     MW 3212   0.046   2.415   1.171  0.0005 -0.0006 -0.0016
  804SOL     OW 3213   2.872   1.362   0.108 -0.2760  0.1956  0.2073
  804SOL    HW1 3214   2.920   1.412   0.174  2.7108 -2.1459  0.0086
  804SOL    HW2 3215   2.892   1.406   0.025  1.2405 -0.4700  0.1883
  804SOL     MW 3216   2.881   1.374   0.106  0.0005 -0.0006 -0.0016
  805SOL     OW 3217   1.967   0.862   2.486 -0.1370 -0.7340 -0.0286
  805SOL    HW1 3218   1.990   0.919   2.413  1.6848 -0.7952  0.4552
  805SOL    HW2 3219   1.933   0.921   2.553 -0.3998 -0.5067 -0.3579
  805SOL     MW 3220   1.965   0.877   2.485  0.0005 -0.0006 -0.0016
  806SOL     OW 3221   0.385   1.423   0.824  0.0703 -0.0135 -0.2701
  806SOL    HW1 3222   0.408   1.350   0.881 -2.0632 -0.3102  0.3098
  806SOL    HW2 3223   0.415   1.397   0.737 -1.5741 -2.1169 -0.2870
  806SOL     MW 3224   0.392   1.411   0.820  0.0005 -0.0006 -0.0016
  807SOL     OW 3225   2.339   0.290   1.885  0.1720  0.3436  0.5398
  807SOL    HW1 3226   2.403   0.267   1.953  0.3389 -1.9164 -0.2902
  807SOL    HW2 3227   2.377   0.254   1.805 -1.9395 -0.7089 -0.0400
  807SOL     MW 3228   2.352   0.282   1.884  0.0005 -0.0006 -0.0016
  808SOL     OW 3229   1.652   1.414   0.499  0.2311 -0.3969  0.7049
  808SOL    HW1 3230   1.597   1.340   0.523 -0.6747  0.2361  0.6177
  808SOL    HW2 3231   1.606   1.491   0.533  0.4653  0.2444 -0.3682
  808SOL     MW 3232   1.639   1.414   0.506  0.0005 -0.0006 -0.0016
  809SOL     OW 3233   0.762   1.702   0.585  0.5583 -0.2529 -0.4775
  809SOL    HW1 3234   0.797   1.613   0.592  0.5312 -0.2403 -0.1549
  809SOL    HW2 3235   0.837   1.756   0.561  0.8040 -0.2039  0.3454
  809SOL     MW 3236   0.776   1.697   0.583  0.0005 -0.0006 -0.0016
  810SOL     OW 3237   2.023   2.772   2.347 -0.2806  0.1052  0.3417
  810SOL    HW1 3238   2.027   2.679   2.370 -2.1723 -0.0081  0.3536
  810SOL    HW2 3239   2.006   2.816   2.430 -0.1454  0.3989  0.2137
  810SOL     MW 3240   2.021   2.765   2.361  0.0005 -0.0006 -0.0016
  811SOL     OW 3241   0.727   1.964   0.160  0.2663  0.6873 -0.6507
  811SOL    HW1 3242   0.799   2.008   0.204  0.7856 -0.7811  0.0289
  811SOL    HW2 3243   0.650   1.983   0.214  0.8302 -0.7731  0.7689
  811SOL     MW 3244   0.726   1.972   0.173  0.0005 -0.0006 -0.0016
  812SOL     OW 3245   0.667   0.933   2.579  0.3549  0.1631  0.4792
  812SOL    HW1 3246   0.646   0.993   2.508  0.1615  0.1739  0.5450
  812SOL    HW2 3247   0.642   0.981   2.658 -2.2584 -0.9700  0.4442
  812SOL     MW 3248   0.661   0.947   2.580  0.0005 -0.0006 -0.0016
  813SOL     OW 3249   0.912   2.400   1.661 -0.0937  0.3007  0.0051
  813SOL    HW1 3250   0.933   2.491   1.683  0.3730  0.4602 -1.0568
  813SOL    HW2 3251   0.860   2.406   1.581  0.9520 -0.4152 -0.7474
  813SOL     MW 3252   0.908   2.413   1.654  0.0005 -0.0006 -0.0016
  814SOL     OW 3253   2.417   1.640   0.857 -0.1958  0.3525 -0.2759
  814SOL    HW1 3254   2.443   1.550   0.876 -0.6739  0.3066  0.1718
  814SOL    HW2 3255   2.455   1.692   0.927 -3.0455  0.0234  1.6846
  814SOL     MW 3256   2.425   1.635   0.868  0.0005 -0.0006 -0.0016
  815SOL     OW 3257   2.569   0.583   1.233 -0.2106 -0.3112  0.5399
  815SOL    HW1 3258   2.649   0.607   1.189 -0.0141  1.0888  1.5961
  815SOL    HW2 3259   2.556   0.490   1.211  2.2000 -0.8442  1.1289
  815SOL     MW 3260   2.577   0.574   1.225  0.0005 -0.0006 -0.0016
  816SOL     OW 3261   1.069   2.078   1.239 -0.5304  0.1807 -0.3657
  816SOL    HW1 3262   1.118   2.137   1.183 -0.0073 -0.5805 -0.7326
  816SOL    HW2 3263   0.992   2.053   1.187 -2.5893  3.1261  1.0394
  816SOL     MW 3264   1.065   2.082   1.225  0.0005 -0.0006 -0.0016
  817SOL     OW 3265   2.255   1.788   0.507 -0.1324  0.1207  0.0410
  817SOL    HW1 3266   2.294   1.802   0.421  1.3239  2.1848  0.9707
  817SOL    HW2 3267   2.323   1.742   0.557 -0.9275 -0.9681  0.1705
  817SOL     MW 3268   2.269   1.784   0.502  0.0005 -0.0006 -0.0016
  818SOL     OW 3269   0.208   1.029   0.357 -0.1917 -0.1226 -0.6343
  818SOL    HW1 3270   0.276   1.097   0.358 -0.0867 -0.1199 -2.9376
  818SOL    HW2 3271   0.211   0.992   0.445 -1.0028  3.5590  1.1421
  818SOL     MW 3272   0.217   1.033   0.368  0.0005 -0.0006 -0.0016
  819SOL     OW 3273   1.335   1.168   1.156  0.4729 -0.4400 -0.2777
  819SOL    HW1 3274   1.406   1.112   1.124  0.8361 -1.3391  1.9641
  819SOL    HW2 3275   1.335   1.155   1.251 -0.4633  2.1797  0.1492
  819SOL     MW 3276   1.344   1.159   1.164  0.0005 -0.0006 -0.0016
  820SOL     OW 3277   1.161   0.533   1.928 -0.2913  0.4484  0.6103
  820SOL    HW1 3278   1.255   0.517   1.922 -0.2869  0.4208  0.7670
  820SOL    HW2 3279   1.126   0.455   1.971 -0.6217 -0.3842 -1.0830
  820SOL     MW 3280   1.168   0.521   1.933  0.0005 -0.0006 -0.0016
  821SOL     OW 3281   2.630   0.779   2.017  0.1133  0.4358  0.0841
  821SOL    HW1 3282   2.594   0.745   1.935 -1.4764 -1.4363  1.4714
  821SOL    HW2 3283   2.554   0.812   2.065  0.7712 -0.0551  1.5001
  821SOL     MW 3284   2.616   0.779   2.013  0.0005 -0.0006 -0.0016
  822SOL     OW 3285   2.621   2.427   2.745 -0.0546  0.5115  0.4607
  822SOL    HW1 3286   2.599   2.366   2.815 -1.1901  0.4242  0.0563
  822SOL    HW2 3287   2.539   2.475   2.729  0.4340  1.1478 -0.1943
  822SOL     MW 3288   2.607   2.425   2.752  0.0005 -0.0006 -0.0016
  823SOL     OW 3289   0.646   3.005   2.478  0.1211  0.0409 -0.6839
  823SOL    HW1 3290   0.637   2.978   2.570 -1.6415 -0.3050 -0.9217
  823SOL    HW2 3291   0.700   3.084   2.482 -0.2842  0.2843  0.6965
  823SOL     MW 3292   0.652   3.012   2.490  0.0005 -0.0006 -0.0016
  824SOL     OW 3293   2.470   0.287   2.175  0.1350  0.6303 -0.3667
  824SOL    HW1 3294   2.514   0.218   2.224 -0.7469  0.6817  0.5329
  824SOL    HW2 3295   2.537   0.356   2.166  0.6361  0.1783 -0.1716
  824SOL     MW 3296   2.485   0.287   2.180  0.0005 -0.0006 -0.0016
  825SOL     OW 3297   2.691   2.877   1.997  0.5200  0.9092 -0.2971
  825SOL    HW1 3298   2.723   2.850   2.083 -4.0585 -1.8432  0.8818
  825SOL    HW2 3299   2.683   2.796   1.947 -0.4613  1.9590 -1.9530
  825SOL     MW 3300   2.694   2.863   2.002  0.0005 -0.0006 -0.0016
  826SOL     OW 3301   0.340   2.751   2.047 -0.1213  0.2293  0.5073
  826SOL    HW1 3302   0.428   2.777   2.076  1.2413 -1.4772 -1.7001
  826SOL    HW2 3303   0.313   2.821   1.988 -0.4002  0.8996  1.4094
  826SOL     MW 3304   0.348   2.763   2.043  0.0005 -0.0006 -0.0016
  827SOL     OW 3305   0.250   1.383   0.433 -0.2646 -0.2609  0.7274
  827SOL    HW1 3306   0.310   1.311   0.452  0.0018  0.1533  1.4906
  827SOL    HW2 3307   0.221   1.367   0.344  0.7074 -0.6680  0.4682
  827SOL     MW 3308   0.254   1.372   0.424  0.0005 -0.0006 -0.0016
  828SOL     OW 3309   2.469   1.478   1.500  0.8835 -0.1902  0.2089
  828SOL    HW1 3310   2.382   1.438   1.506  1.0984 -0.9205 -1.1290
  828SOL    HW2 3311   2.523   1.427   1.561  0.5908 -0.3478  0.3367
  828SOL     MW 3312   2.465   1.466   1.509  0.0005 -0.0006 -0.0016
  829SOL     OW 3313   3.029   2.871   2.941 -0.1013 -0.2473  0.0458
  829SOL    HW1 3314   3.058   2.962   2.949 -3.0749  0.8744 -0.6664
  829SOL    HW2 3315   3.045   2.848   2.850 -1.7252  0.5318 -0.4693
  829SOL     MW 3316   3.035   2.879   2.931  0.0005 -0.0006 -0.0016
  830SOL     OW 3317   1.857   2.575   0.810 -0.1655 -0.0449  0.1241
  830SOL    HW1 3318   1.871   2.488   0.848 -1.9348 -0.5088 -0.2059
  830SOL    HW2 3319   1.810   2.623   0.878 -2.4277 -0.5424 -1.0144
  830SOL     MW 3320   1.853   2.570   0.824  0.0005 -0.0006 -0.0016
  831SOL     OW 3321   0.977   0.908   1.436 -0.4611  0.0872  0.6612
  831SOL    HW1 3322   1.059   0.860   1.429  0.9353  2.1910  1.4327
  831SOL    HW2 3323   0.971   0.956   1.353 -0.2253  0.8951  1.0980
  831SOL     MW 3324   0.987   0.908   1.424  0.0005 -0.0006 -0.0016
  832SOL     OW 3325   0.956   1.594   1.378  0.0805 -0.3090 -0.4215
  832SOL    HW1 3326   0.991   1.539   1.307 -1.0844 -1.0341 -0.4546
  832SOL    HW2 3327   1.032   1.643   1.410  1.1296 -1.8405 -0.4819
  832SOL     MW 3328   0.971   1.593   1.373  0.0005 -0.0006 -0.0016
  833SOL     OW 3329   2.576   0.039   0.841  0.4324  0.1856 -0.2459
  833SOL    HW1 3330   2.488   0.004   0.853 -0.0827  1.6321  0.4454
  833SOL    HW2 3331   2.613   0.039   0.929  1.3001 -0.8193 -0.5968
  833SOL     MW 3332   2.569   0.035   0.854  0.0005 -0.0006 -0.0016
  834SOL     OW 3333   0.220   1.067   1.008 -0.1343  0.3352 -0.3764
  834SOL    HW1 3334   0.202   0.973   1.009  0.4982  0.2071 -0.2857
  834SOL    HW2 3335   0.162   1.103   0.941 -0.5841 -0.0762 -0.2123
  834SOL     MW 3336   0.211   1.060   1.000  0.0005 -0.0006 -0.0016
  835SOL     OW 3337   1.273   0.530   0.222  0.0117 -0.1845 -0.1533
  835SOL    HW1 3338   1.235   0.539   0.134 -1.4751 -1.3443  0.3170
  835SOL    HW2 3339   1.227   0.455   0.259  0.1757  0.6628  1.8478
  835SOL     MW 3340   1.262   0.521   0.215  0.0005 -0.0006 -0.0016
  836SOL     OW 3341   2.086   1.430   2.714  1.0068  0.4336 -0.6261
  836SOL    HW1 3342   2.019   1.390   2.770  1.7456 -1.6000 -1.1027
  836SOL    HW2 3343   2.071   1.392   2.628  2.4533  0.3235 -0.8557
  836SOL     MW 3344   2.076   1.420   2.710  0.0005 -0.0006 -0.0016
  837SOL     OW 3345   0.396   0.455   0.408  0.0764  0.2567  0.0864
  837SOL    HW1 3346   0.476   0.432   0.360 -0.5056 -0.6574 -0.4747
  837SOL    HW2 3347   0.372   0.374   0.454  0.3555  0.9773  1.5621
  837SOL     MW 3348   0.404   0.441   0.408  0.0005 -0.0006 -0.0016
  838SOL     OW 3349   1.939   0.507   0.715 -0.8678  0.2453 -0.1187
  838SOL    HW1 3350   1.915   0.596   0.740 -1.3189  0.1134 -0.0799
  838SOL    HW2 3351   2.028   0.496   0.751 -0.1424  1.2322 -1.5011
  838SOL     MW 3352   1.948   0.517   0.723  0.0005 -0.0006 -0.0016
  839SOL     OW 3353   3.136   0.085   2.470  0.1231 -0.1353  0.3677
  839SOL    HW1 3354   3.062   0.135   2.437  0.4054 -1.7474 -3.1346
  839SOL    HW2 3355   3.101  -0.003   2.485  1.2964 -1.0204 -1.6979
  839SOL     MW 3356   3.122   0.080   2.468  0.0005 -0.0006 -0.0016
  840SOL     OW 3357   0.293   0.430   1.181  0.2071 -0.1653  0.1669
  840SOL    HW1 3358   0.243   0.411   1.101 -0.1245 -1.1561  0.5908
  840SOL    HW2 3359   0.236   0.489   1.231  0.3357  0.3077 -0.2340
  840SOL     MW 3360   0.279   0.435   1.177  0.0005 -0.0006 -0.0016
  841SOL     OW 3361   2.819   0.118   0.287  0.0082  0.1823  0.5390
  841SOL    HW1 3362   2.852   0.111   0.198 -1.2686 -0.1162  0.0574
  841SOL    HW2 3363   2.740   0.063   0.287 -1.4132  2.1280  1.1435
  841SOL     MW 3364   2.813   0.110   0.276  0.0005 -0.0006 -0.0016
  842SOL     OW 3365   2.028   2.973   1.971  0.2328  0.1273  0.3408
  842SOL    HW1 3366   1.992   3.022   2.045 -0.2089  0.1234  0.1289
  842SOL    HW2 3367   2.111   2.938   2.004  0.3922  0.7329  0.6022
  842SOL     MW 3368   2.034   2.975   1.985  0.0005 -0.0006 -0.0016
  843SOL     OW 3369   2.059   0.344   2.448  0.0048 -0.0659 -0.0944
  843SOL    HW1 3370   2.062   0.291   2.528  1.8701 -0.8001 -0.6008
  843SOL    HW2 3371   2.118   0.417   2.466 -1.4693  1.1407  0.0664
  843SOL     MW 3372   2.067   0.346   2.461  0.0005 -0.0006 -0.0016
  844SOL     OW 3373   2.970   0.311   2.949  0.0481  0.1769 -0.1600
  844SOL    HW1 3374   3.007   0.340   2.866  1.1958  0.5268  0.4465
  844SOL    HW2 3375   2.894   0.366   2.964  0.6292  1.0359 -0.3341
  844SOL     MW 3376   2.965   0.322   2.941  0.0005 -0.0006 -0.0016
  845SOL     OW 3377   1.419   0.883   1.370 -0.2680 -0.3135  0.0726
  845SOL    HW1 3378   1.409   0.976   1.387 -1.0680 -0.2674 -0.5546
  845SOL    HW2 3379   1.410   0.841   1.455  1.0375  0.2290  0.5054
  845SOL     MW 3380   1.417   0.890   1.383  0.0005 -0.0006 -0.0016
  846SOL     OW 3381   3.072   1.089   1.128  0.7203 -0.2381 -0.1074
  846SOL    HW1 3382   3.139   1.157   1.132  1.1720 -0.7025  0.2421
  846SOL    HW2 3383   3.100   1.031   1.057 -0.9126  1.2320 -2.0864
  846SOL     MW 3384   3.084   1.091   1.120  0.0005 -0.0006 -0.0016
  847SOL     OW 3385   2.130   1.008   2.869  0.2559 -0.5658  0.3524
  847SOL    HW1 3386   2.118   0.914   2.877 -0.0425 -0.7323 -1.5564
  847SOL    HW2 3387   2.066   1.035   2.803  1.2663  0.7367 -0.1477
  847SOL     MW 3388   2.120   1.000   2.861  0.0005 -0.0006 -0.0016
  848SOL     OW 3389   0.505   0.166   1.603  0.2466  0.2953 -0.2899
  848SOL    HW1 3390   0.535   0.078   1.582 -0.0623  0.1236 -0.0206
  848SOL    HW2 3391   0.583   0.211   1.636  0.8419  0.6874 -2.0946
  848SOL     MW 3392   0.519   0.161   1.604  0.0005 -0.0006 -0.0016
  849SOL     OW 3393   2.140   2.085   1.966  0.2122  0.2861  0.1202
  849SOL    HW1 3394   2.219   2.133   1.992 -1.1646  2.2198  0.9921
  849SOL    HW2 3395   2.159   2.053   1.878  1.0267  3.0048 -0.7725
  849SOL     MW 3396   2.153   2.087   1.958  0.0005 -0.0006 -0.0016
  850SOL     OW 3397   2.728   0.736   0.531 -0.3049  0.5231  0.1463
  850SOL    HW1 3398   2.787   0.784   0.589 -0.7646 -0.1810  1.2509
  850SOL    HW2 3399   2.640   0.756   0.565 -0.5968  0.2258 -0.4123
  850SOL     MW 3400   2.724   0.744   0.543  0.0005 -0.0006 -0.0016
  851SOL     OW 3401   2.107   2.012   0.799 -0.2978  0.2641 -0.3307
  851SOL    HW1 3402   2.053   1.935   0.781 -0.3796 -0.3124  1.9942
  851SOL    HW2 3403   2.159   2.024   0.720 -1.1159 -1.4829 -1.1899
  851SOL     MW 3404   2.107   2.004   0.787  0.0005 -0.0006 -0.0016
  852SOL     OW 3405   0.371   1.721   2.490  0.2809 -0.2463 -0.0001
  852SOL    HW1 3406   0.349   1.813   2.500 -0.8412 -0.3323 -1.4959
  852SOL    HW2 3407   0.309   1.687   2.426  0.6009 -2.0776  0.5906
  852SOL     MW 3408   0.360   1.728   2.483  0.0005 -0.0006 -0.0016
  853SOL     OW 3409   0.082   2.413   2.504  0.2738 -0.2518  0.0409
  853SOL    HW1 3410   0.083   2.502   2.538  1.9806 -0.2778  0.1581
  853SOL    HW2 3411   0.154   2.412   2.440 -0.7997 -1.0896 -1.1875
  853SOL     MW 3412   0.092   2.424   2.500  0.0005 -0.0006 -0.0016
  854SOL     OW 3413   2.258   0.993   1.870 -0.7543 -0.2899 -0.1938
  854SOL    HW1 3414   2.304   0.954   1.945 -1.3480 -0.9980 -0.1881
  854SOL    HW2 3415   2.324   1.049   1.829 -0.5365  0.4490  1.0911
  854SOL     MW 3416   2.272   0.995   1.875  0.0005 -0.0006 -0.0016
  855SOL     OW 3417   1.337   0.095   2.577  0.7817  0.1088 -0.2218
  855SOL    HW1 3418   1.252   0.113   2.537  0.4067  0.3657  0.6571
  855SOL    HW2 3419   1.385   0.177   2.569  0.8807  0.0224 -0.5421
  855SOL     MW 3420   1.332   0.108   2.571  0.0005 -0.0006 -0.0016
  856SOL     OW 3421   1.610   2.993   2.099  0.0627  0.2151 -0.6036
  856SOL    HW1 3422   1.613   3.088   2.110 -0.2214  0.2518 -0.8610
  856SOL    HW2 3423   1.702   2.968   2.086 -0.1252  0.8686 -4.1581
  856SOL     MW 3424   1.622   3.002   2.099  0.0005 -0.0006 -0.0016
  857SOL     OW 3425   0.963   0.641   2.371 -0.2504 -0.0616 -0.4044
  857SOL    HW1 3426   1.026   0.572   2.388 -2.6640 -2.3722 -0.1877
  857SOL    HW2 3427   0.961   0.693   2.451 -1.1970 -2.1948  1.0399
  857SOL     MW 3428   0.971   0.639   2.383  0.0005 -0.0006 -0.0016
  858SOL     OW 3429   0.197   0.805   0.190  0.0570 -0.3784 -0.4934
  858SOL    HW1 3430   0.222   0.865   0.260 -0.7616 -2.6385  1.9130
  858SOL    HW2 3431   0.171   0.724   0.235 -0.1565 -2.1325 -3.4477
  858SOL     MW 3432   0.197   0.802   0.205  0.0005 -0.0006 -0.0016
  859SOL     OW 3433   0.976   2.338   0.600  0.1602 -0.4532 -0.7029
  859SOL    HW1 3434   0.880   2.337   0.597 -0.1291  1.8848  2.3089
  859SOL    HW2 3435   0.997   2.308   0.689  2.2970 -1.5107 -1.5009
  859SOL     MW 3436   0.967   2.334   0.611  0.0005 -0.0006 -0.0016
  860SOL     OW 3437   1.614   1.544   0.125  0.0717  0.4856  0.2315
  860SOL    HW1 3438   1.549   1.506   0.184  0.1774  0.8571  0.5893
  860SOL    HW2 3439   1.667   1.470   0.097 -1.3698 -0.0724 -1.1919
  860SOL     MW 3440   1.612   1.530   0.129  0.0005 -0.0006 -0.0016
  861SOL     OW 3441   1.334   1.523   2.021 -0.3134  0.3482  0.2374
  861SOL    HW1 3442   1.351   1.442   1.972 -0.9342 -0.5031  1.3865
  861SOL    HW2 3443   1.401   1.525   2.088 -0.3528  0.7559  0.2680
  861SOL     MW 3444   1.345   1.513   2.023  0.0005 -0.0006 -0.0016
  862SOL     OW 3445   2.010   1.079   0.333 -0.1220 -0.4328 -0.3135
  862SOL    HW1 3446   1.942   1.131   0.291  0.1854  0.3415  0.1270
  862SOL    HW2 3447   2.034   1.013   0.268  0.4141  0.7934 -1.3966
  862SOL     MW 3448   2.005   1.077   0.319  0.0005 -0.0006 -0.0016
  863SOL     OW 3449   2.837   1.063   0.544 -0.1380 -0.3081  0.0970
  863SOL    HW1 3450   2.835   1.081   0.638 -2.2148  0.0069  0.0394
  863SOL    HW2 3451   2.908   1.117   0.511  0.4133 -0.1800  1.4388
  863SOL     MW 3452   2.846   1.072   0.552  0.0005 -0.0006 -0.0016
  864SOL     OW 3453   2.458   2.531   2.323 -0.2199  0.0571  0.0820
  864SOL    HW1 3454   2.510   2.591   2.377  0.0841  0.7277 -0.9405
  864SOL    HW2 3455   2.491   2.444   2.345  0.1950  0.3530  0.6553
  864SOL     MW 3456   2.469   2.527   2.333  0.0005 -0.0006 -0.0016
  865SOL     OW 3457   0.027   0.599   0.599  0.8648 -0.4435 -0.2636
  865SOL    HW1 3458  -0.001   0.587   0.508  1.5391 -0.5864 -0.4541
  865SOL    HW2 3459  -0.021   0.677   0.628 -0.2998 -1.1061 -0.3497
  865SOL     MW 3460   0.017   0.608   0.591  0.0005 -0.0006 -0.0016
  866SOL     OW 3461   2.355   1.239   0.727  0.1541 -0.4466 -0.5226
  866SOL    HW1 3462   2.421   1.263   0.662 -0.4838 -2.5438 -2.0168
  866SOL    HW2 3463   2.406   1.212   0.804  1.0653 -1.5873 -1.4891
  866SOL     MW 3464   2.370   1.239   0.729  0.0005 -0.0006 -0.0016
  867SOL     OW 3465   1.149   1.465   2.359  0.0691  0.1719 -0.1987
  867SOL    HW1 3466   1.230   1.516   2.353 -0.5821  1.4754  1.3110
  867SOL    HW2 3467   1.087   1.513   2.303 -0.5338  1.0958  1.1925
  867SOL     MW 3468   1.151   1.478   2.351  0.0005 -0.0006 -0.0016
  868SOL     OW 3469   1.910   0.133   1.739  0.0666 -0.0936  0.1048
  868SOL    HW1 3470   1.829   0.165   1.700 -0.4984  1.7289  2.4975
  868SOL    HW2 3471   1.979   0.170   1.685 -0.6880  1.2910  0.0510
  868SOL     MW 3472   1.908   0.142   1.727  0.0005 -0.0006 -0.0016
  869SOL     OW 3473   0.028   2.769   0.286  0.2671  0.4234 -0.1766
  869SOL    HW1 3474   0.061   2.749   0.374 -0.6141 -2.1735 -0.3386
  869SOL    HW2 3475  -0.014   2.854   0.295  0.5946  0.4324  1.8050
  869SOL     MW 3476   0.027   2.777   0.299  0.0005 -0.0006 -0.0016
  870SOL     OW 3477   1.426   0.098   3.015 -0.0570  0.2406 -0.1267
  870SOL    HW1 3478   1.382   0.044   3.081 -1.6339  0.1445 -1.1989
  870SOL    HW2 3479   1.519   0.089   3.034 -0.4296 -0.5734  1.4563
  870SOL     MW 3480   1.432   0.090   3.026  0.0005 -0.0006 -0.0016
  871SOL     OW 3481   2.508   2.958   1.431 -0.0385 -0.0990  0.6627
  871SOL    HW1 3482   2.489   2.864   1.424  0.4682 -0.1905  0.4624
  871SOL    HW2 3483   2.450   2.989   1.501 -1.0295 -0.3313 -0.0329
  871SOL     MW 3484   2.498   2.950   1.439  0.0005 -0.0006 -0.0016
  872SOL     OW 3485   3.064   0.885   0.116  0.0648  0.2188 -0.1205
  872SOL    HW1 3486   3.153   0.874   0.151  0.4606  0.1188 -1.1194
  872SOL    HW2 3487   3.054   0.980   0.107  2.1614  0.2469 -4.9808
  872SOL     MW 3488   3.074   0.896   0.120  0.0005 -0.0006 -0.0016
  873SOL     OW 3489   3.082   2.492   2.108 -0.7086 -0.4756 -0.4792
  873SOL    HW1 3490   3.043   2.448   2.183  0.7616  0.6764  1.0235
  873SOL    HW2 3491   3.131   2.423   2.063  2.0991 -0.4162  2.2096
  873SOL     MW 3492   3.083   2.477   2.112  0.0005 -0.0006 -0.0016
  874SOL     OW 3493   2.489   0.716   0.202 -0.5845  0.4923  0.2791
  874SOL    HW1 3494   2.502   0.794   0.148 -0.1829 -1.1614 -2.1764
  874SOL    HW2 3495   2.442   0.748   0.280 -1.9907  2.9073 -1.4159
  874SOL     MW 3496   2.484   0.730   0.205  0.0005 -0.0006 -0.0016
  875SOL     OW 3497   2.992   2.469   0.970  0.2922 -0.1469  0.3269
  875SOL    HW1 3498   3.020   2.483   0.880 -1.2014  0.8887 -0.0036
  875SOL    HW2 3499   2.910   2.421   0.964 -0.4114  0.9115  1.0655
  875SOL     MW 3500   2.985   2.465   0.958  0.0005 -0.0006 -0.0016
  876SOL     OW 3501   2.996   2.100   0.746 -0.2765  0.2865  0.2568
  876SOL    HW1 3502   3.030   2.095   0.835  0.5733  0.5871 -0.0330
  876SOL    HW2 3503   2.904   2.123   0.756 -0.2741 -0.0283  1.0628
  876SOL     MW 3504   2.989   2.102   0.758  0.0005 -0.0006 -0.0016
  877SOL     OW 3505   1.865   1.108   0.582 -0.0212 -0.1480  0.0414
  877SOL    HW1 3506   1.924   1.075   0.514 -1.5647 -0.5621 -1.1583
  877SOL    HW2 3507   1.860   1.037   0.646  1.5856  0.3123  0.7292
  877SOL     MW 3508   1.872   1.095   0.581  0.0005 -0.0006 -0.0016
  878SOL     OW 3509   2.608   0.232   1.447  0.6898  0.3427 -0.5005
  878SOL    HW1 3510   2.588   0.324   1.465 -0.4074 -0.0867  0.6271
  878SOL    HW2 3511   2.543   0.206   1.382  0.5257  0.1691 -0.2674
  878SOL     MW 3512   2.597   0.241   1.441  0.0005 -0.0006 -0.0016
  879SOL     OW 3513   1.449   0.485   1.592  0.2138  0.0189 -0.1399
  879SOL    HW1 3514   1.372   0.542   1.591 -0.3638 -0.7072  1.2560
  879SOL    HW2 3515   1.459   0.458   1.501 -1.4224 -0.1812 -0.2911
  879SOL     MW 3516   1.441   0.489   1.580  0.0005 -0.0006 -0.0016
  880SOL     OW 3517   0.187   0.909   0.592 -0.1862  0.0354 -0.0103
  880SOL    HW1 3518   0.232   0.824   0.593 -1.8889 -0.9318  2.1386
  880SOL    HW2 3519   0.238   0.964   0.651  0.7685  0.4699 -1.2004
  880SOL     MW 3520   0.200   0.905   0.599  0.0005 -0.0006 -0.0016
  881SOL     OW 3521   1.622   1.405   1.319  0.2014 -0.1390 -0.1432
  881SOL    HW1 3522   1.714   1.388   1.298 -0.1496 -1.4030 -0.7202
  881SOL    HW2 3523   1.573   1.344   1.265 -1.0271  0.9552 -0.3119
  881SOL     MW 3524   1.628   1.395   1.309  0.0005 -0.0006 -0.0016
  882SOL     OW 3525   1.427   0.762   1.898 -0.4739 -0.3870  0.2264
  882SOL    HW1 3526   1.469   0.676   1.895 -0.9961 -0.6611  0.7062
  882SOL    HW2 3527   1.498   0.822   1.922 -0.8267 -1.2188  4.0172
  882SOL     MW 3528   1.442   0.759   1.901  0.0005 -0.0006 -0.0016
  883SOL     OW 3529   0.873   1.270   2.613  0.1395 -0.0393 -0.2005
  883SOL    HW1 3530   0.868   1.225   2.529 -1.1438  0.3186 -0.3430
  883SOL    HW2 3531   0.964   1.300   2.620  0.4677 -0.8155 -1.0583
  883SOL     MW 3532   0.884   1.268   2.603  0.0005 -0.0006 -0.0016
  884SOL     OW 3533   2.475   2.323   1.288 -0.1381  0.5951  0.3740
  884SOL    HW1 3534   2.502   2.245   1.337 -1.7327 -1.0055 -1.1289
  884SOL    HW2 3535   2.415   2.369   1.347 -2.9650 -1.9194 -0.3007
  884SOL     MW 3536   2.471   2.319   1.302  0.0005 -0.0006 -0.0016
  885SOL     OW 3537   1.672   0.656   0.129 -0.0555  0.0675  0.1260
  885SOL    HW1 3538   1.653   0.676   0.038 -2.1339 -2.1197 -0.0400
  885SOL    HW2 3539   1.600   0.697   0.178 -1.9460 -2.9378  0.1569
  885SOL     MW 3540   1.660   0.664   0.124  0.0005 -0.0006 -0.0016
  886SOL     OW 3541   1.554   1.802   1.669  0.0222 -0.3871  0.2029
  886SOL    HW1 3542   1.540   1.720   1.716 -1.4139  0.2738  0.9832
  886SOL    HW2 3543   1.565   1.868   1.737  0.8686  0.1414 -0.4178
  886SOL     MW 3544   1.554   1.800   1.684  0.0005 -0.0006 -0.0016
  887SOL     OW 3545   0.505   1.240   1.735 -0.0621  0.1401 -0.3628
  887SOL    HW1 3546   0.448   1.165   1.716  0.1704  0.4354 -2.4756
  887SOL    HW2 3547   0.445   1.308   1.767 -0.5592 -0.3103 -0.3135
  887SOL     MW 3548   0.490   1.239   1.737  0.0005 -0.0006 -0.0016
  888SOL     OW 3549   2.463   2.171   1.700 -0.0775 -0.1196  0.1148
  888SOL    HW1 3550   2.377   2.199   1.731 -0.3831 -0.7623 -0.1494
  888SOL    HW2 3551   2.487   2.098   1.757 -0.0375 -0.4220 -0.2829
  888SOL     MW 3552   2.455   2.166   1.711  0.0005 -0.0006 -0.0016
  889SOL     OW 3553   1.680   0.194   2.503  0.5620 -0.0239  0.0575
  889SOL    HW1 3554   1.688   0.182   2.597 -0.9397  1.0963  0.3665
  889SOL    HW2 3555   1.702   0.108   2.466  2.2567 -0.1853  1.3254
  889SOL     MW 3556   1.684   0.181   2.510  0.0005 -0.0006 -0.0016
  890SOL     OW 3557   2.393   2.509   1.480  0.0653  0.5695  0.1829
  890SOL    HW1 3558   2.470   2.470   1.521  0.5427  1.5473  0.2310
  890SOL    HW2 3559   2.427   2.579   1.424 -0.5929 -0.4448 -1.5827
  890SOL     MW 3560   2.407   2.513   1.478  0.0005 -0.0006 -0.0016
  891SOL     OW 3561   2.530   1.186   0.922  0.1169 -0.1672 -0.3333
  891SOL    HW1 3562   2.485   1.179   1.007 -0.4067  0.6696 -0.5334
  891SOL    HW2 3563   2.561   1.097   0.904 -0.9739 -0.6470  0.0802
  891SOL     MW 3564   2.528   1.174   0.931  0.0005 -0.0006 -0.0016
  892SOL     OW 3565   3.038   1.694   0.563 -0.3669 -0.0162  0.1864
  892SOL    HW1 3566   3.132   1.690   0.551 -0.2745  0.6562  0.5990
  892SOL    HW2 3567   3.017   1.787   0.557 -1.3020 -0.3160 -1.9944
  892SOL     MW 3568   3.047   1.706   0.561  0.0005 -0.0006 -0.0016
  893SOL     OW 3569   0.822   1.799   1.212 -0.0314 -0.3505 -0.2695
  893SOL    HW1 3570   0.805   1.772   1.122 -0.1475 -1.1196 -0.0212
  893SOL    HW2 3571   0.870   1.725   1.250 -1.2731 -0.6769  0.7286
  893SOL     MW 3572   0.826   1.786   1.205  0.0005 -0.0006 -0.0016
  894SOL     OW 3573   1.281   1.341   1.837 -0.2693 -0.1512  0.5155
  894SOL    HW1 3574   1.295   1.252   1.803  0.5145  0.7077 -1.5731
  894SOL    HW2 3575   1.189   1.341   1.864 -0.4476 -1.4388  0.0201
  894SOL     MW 3576   1.271   1.329   1.836  0.0005 -0.0006 -0.0016
  895SOL     OW 3577   0.819   1.603   2.971  0.1232 -0.3586  1.1272
  895SOL    HW1 3578   0.803   1.684   2.923  0.4281 -0.5215  0.7395
  895SOL    HW2 3579   0.849   1.631   3.057 -0.3994 -0.0610  1.2165
  895SOL     MW 3580   0.821   1.617   2.976  0.0005 -0.0006 -0.0016
  896SOL     OW 3581   2.714   1.915   0.588 -0.1078 -0.2187 -0.1512
  896SOL    HW1 3582   2.664   1.834   0.595 -1.2872  0.5461  0.6915
  896SOL    HW2 3583   2.754   1.911   0.501  0.9781 -2.3026  0.3807
  896SOL     MW 3584   2.713   1.904   0.578  0.0005 -0.0006 -0.0016
  897SOL     OW 3585   1.493   0.161   0.368 -0.4806  0.4550 -0.1613
  897SOL    HW1 3586   1.497   0.219   0.293 -0.6213  0.0427 -0.4922
  897SOL    HW2 3587   1.548   0.202   0.434 -0.1053  0.6569 -0.6025
  897SOL     MW 3588   1.500   0.174   0.367  0.0005 -0.0006 -0.0016
  898SOL     OW 3589   1.967   2.015   0.281  0.2431  0.2125 -0.0309
  898SOL    HW1 3590   1.985   1.924   0.258 -1.4330 -0.6048  1.6277
  898SOL    HW2 3591   1.911   2.047   0.211 -1.1054 -0.8190  0.5205
  898SOL     MW 3592   1.962   2.007   0.269  0.0005 -0.0006 -0.0016
  899SOL     OW 3593   2.274   0.750   3.016  0.3443  0.3163 -0.1145
  899SOL    HW1 3594   2.278   0.663   3.055 -0.1852  0.3031 -0.0953
  899SOL    HW2 3595   2.259   0.734   2.923 -0.6696  0.4114  0.0302
  899SOL     MW 3596   2.273   0.737   3.009  0.0005 -0.0006 -0.0016
  900SOL     OW 3597   2.998   0.552   0.329 -0.1108  0.0012  0.3345
  900SOL    HW1 3598   2.948   0.621   0.285 -0.3565  1.1163  2.2262
  900SOL    HW2 3599   3.061   0.523   0.264  1.7118  3.7919  0.1320
  900SOL     MW 3600   2.999   0.557   0.315  0.0005 -0.0006 -0.0016
  901SOL     OW 3601   1.158   1.634   0.110 -0.2164  0.1505 -0.0031
  901SOL    HW1 3602   1.180   1.726   0.119 -0.7941  0.1780  1.3260
  901SOL    HW2 3603   1.167   1.616   0.017 -3.6987  2.4877 -0.9923
  901SOL     MW 3604   1.162   1.643   0.099  0.0005 -0.0006 -0.0016
  902SOL     OW 3605   0.859   1.128   1.793 -0.2408 -0.1516 -0.3195
  902SOL    HW1 3606   0.941   1.085   1.769 -0.3920 -0.8228  0.3253
  902SOL    HW2 3607   0.881   1.181   1.869 -0.0269  1.0370 -1.1936
  902SOL     MW 3608   0.872   1.129   1.800  0.0005 -0.0006 -0.0016
  903SOL     OW 3609   1.652   2.353   2.788  0.0922 -0.0377  0.1319
  903SOL    HW1 3610   1.716   2.368   2.857 -0.9596  1.4372  0.8471
  903SOL    HW2 3611   1.650   2.258   2.778  0.9416 -0.2342  1.4847
  903SOL     MW 3612   1.660   2.343   2.796  0.0005 -0.0006 -0.0016
  904SOL     OW 3613   2.232   0.867   0.599 -0.1192  0.4359 -0.0653
  904SOL    HW1 3614   2.190   0.870   0.685 -1.2250 -0.5512 -0.5376
  904SOL    HW2 3615   2.237   0.958   0.571  0.0248  0.7446  0.9330
  904SOL     MW 3616   2.228   0.879   0.606  0.0005 -0.0006 -0.0016
  905SOL     OW 3617   1.827   2.567   2.632  0.3021  0.0985  0.7104
  905SOL    HW1 3618   1.752   2.592   2.579 -0.4709  0.9980  2.1467
  905SOL    HW2 3619   1.789   2.521   2.707  1.1919  0.2520  1.2790
  905SOL     MW 3620   1.812   2.565   2.635  0.0005 -0.0006 -0.0016
  906SOL     OW 3621   2.831   2.925   0.735 -0.0366 -0.5224  0.2379
  906SOL    HW1 3622   2.801   2.926   0.644 -0.5919  2.2882  0.3763
  906SOL    HW2 3623   2.754   2.900   0.786 -0.3985  0.2375  0.0829
  906SOL     MW 3624   2.817   2.922   0.730  0.0005 -0.0006 -0.0016
  907SOL     OW 3625   1.353   2.464   0.754 -0.3435 -0.1273  0.6993
  907SOL    HW1 3626   1.283   2.490   0.693 -1.5010 -1.0978  1.5563
  907SOL    HW2 3627   1.365   2.371   0.737 -2.6131 -1.1017  3.7189
  907SOL     MW 3628   1.345   2.455   0.744  0.0005 -0.0006 -0.0016
  908SOL     OW 3629   2.758   2.350   1.219  0.1725 -0.2935  0.3926
  908SOL    HW1 3630   2.665   2.345   1.242  0.3748 -3.0867  0.9130
  908SOL    HW2 3631   2.759   2.363   1.124 -0.7755 -1.0549  0.2677
  908SOL     MW 3632   2.746   2.351   1.210  0.0005 -0.0006 -0.0016
  909SOL     OW 3633   2.058   2.118   2.532  0.3388 -0.5186  0.2208
  909SOL    HW1 3634   1.963   2.122   2.528  0.2518  0.7554  2.1541
  909SOL    HW2 3635   2.085   2.203   2.567  2.1268 -1.1389  0.5012
  909SOL     MW 3636   2.049   2.130   2.536  0.0005 -0.0006 -0.0016
  910SOL     OW 3637   0.256   1.548   0.147  0.2004  0.8481 -0.5028
  910SOL    HW1 3638   0.265   1.536   0.052  0.3010 -0.5439 -0.3418
  910SOL    HW2 3639   0.337   1.511   0.183 -1.3406 -2.0039  0.3245
  910SOL     MW 3640   0.268   1.542   0.139  0.0005 -0.0006 -0.0016
  911SOL     OW 3641   2.360   2.520   2.615  0.1990  0.4189  0.1124
  911SOL    HW1 3642   2.371   2.604   2.568 -2.2301  1.4947  1.3128
  911SOL    HW2 3643   2.319   2.462   2.551 -0.8563  1.1186  0.1269
  911SOL     MW 3644   2.356   2.524   2.601  0.0005 -0.0006 -0.0016
  912SOL     OW 3645   1.384   2.826   0.440  0.3529 -0.1940  0.3022
  912SOL    HW1 3646   1.445   2.858   0.373 -1.7828 -0.3725 -1.8302
  912SOL    HW2 3647   1.361   2.904   0.490  1.3262  0.0995  0.3237
  912SOL     MW 3648   1.389   2.840   0.438  0.0005 -0.0006 -0.0016
  913SOL     OW 3649   1.548   0.920   0.397 -0.6168  0.3163 -0.0775
  913SOL    HW1 3650   1.511   0.855   0.337 -1.2618  2.0631 -1.6685
  913SOL    HW2 3651   1.639   0.891   0.410 -0.1150  0.4071 -2.7906
  913SOL     MW 3652   1.555   0.908   0.391  0.0005 -0.0006 -0.0016
  914SOL     OW 3653   3.083   2.038   1.038 -0.1579  0.1985  0.1436
  914SOL    HW1 3654   3.156   2.076   1.088  0.4573  3.4620 -2.7987
  914SOL    HW2 3655   3.005   2.061   1.089  0.6170  0.2163  1.3610
  914SOL     MW 3656   3.083   2.046   1.051  0.0005 -0.0006 -0.0016
  915SOL     OW 3657   1.666   2.328   2.410  0.3176  0.2272 -0.3863
  915SOL    HW1 3658   1.655   2.378   2.329  0.9450  0.0538 -0.5839
  915SOL    HW2 3659   1.596   2.360   2.467  0.2280  0.7703 -0.7869
  915SOL     MW 3660   1.655   2.339   2.407  0.0005 -0.0006 -0.0016
  916SOL     OW 3661   0.922   2.819   0.202 -0.0766  0.1729 -0.0283
  916SOL    HW1 3662   1.006   2.800   0.242 -0.6048  0.0265  1.0286
  916SOL    HW2 3663   0.918   2.915   0.196 -0.1748  0.2161  0.6756
  916SOL     MW 3664   0.932   2.829   0.206  0.0005 -0.0006 -0.0016
  917SOL     OW 3665   1.554   2.985   0.287 -0.4919 -0.0252  0.8019
  917SOL    HW1 3666   1.515   2.995   0.200  1.1181  1.6725  0.2095
  917SOL    HW2 3667   1.545   3.071   0.327  0.8430 -0.1351  1.3864
  917SOL     MW 3668   1.548   2.998   0.281  0.0005 -0.0006 -0.0016
  918SOL     OW 3669   2.715   1.121   1.393 -0.4757 -0.4168  0.6798
  918SOL    HW1 3670   2.736   1.083   1.308  1.2554 -0.5224  1.1223
  918SOL    HW2 3671   2.668   1.202   1.371 -0.3653 -0.6148 -0.3650
  918SOL     MW 3672   2.712   1.127   1.379  0.0005 -0.0006 -0.0016
  919SOL     OW 3673   2.334   2.654   3.034 -0.4782 -0.5135  0.2251
  919SOL    HW1 3674   2.424   2.686   3.021 -0.7838 -0.3784 -1.9364
  919SOL    HW2 3675   2.345   2.561   3.054  0.1935 -0.1853  1.4691
  919SOL     MW 3676   2.347   2.647   3.035  0.0005 -0.0006 -0.0016
  920SOL     OW 3677   2.209   0.045   1.089 -0.3160  0.0722 -0.6706
  920SOL    HW1 3678   2.264   0.008   1.020 -0.4282  0.6286 -1.0642
  920SOL    HW2 3679   2.134   0.081   1.043  0.9883  3.1020 -0.6253
  920SOL     MW 3680   2.206   0.045   1.074  0.0005 -0.0006 -0.0016
  921SOL     OW 3681   0.893   0.076   1.788  0.0910  0.2460 -0.4396
  921SOL    HW1 3682   0.896  -0.011   1.828 -1.5767  1.2444  2.1115
  921SOL    HW2 3683   0.985   0.101   1.780  0.5600 -0.7057  1.3316
  921SOL     MW 3684   0.905   0.068   1.792  0.0005 -0.0006 -0.0016
  922SOL     OW 3685   2.264   2.853   2.316  0.0870 -0.0961 -0.0546
  922SOL    HW1 3686   2.276   2.874   2.223  0.1760 -1.5075 -0.3733
  922SOL    HW2 3687   2.172   2.831   2.324  0.1461 -0.2807  0.1271
  922SOL     MW 3688   2.254   2.853   2.305  0.0005 -0.0006 -0.0016
  923SOL     OW 3689   1.440   1.204   2.043  0.2573 -0.2411 -0.5763
  923SOL    HW1 3690   1.354   1.214   2.002  0.6356 -1.4876 -1.7678
  923SOL    HW2 3691   1.420   1.173   2.131 -0.5266 -0.8588 -0.9511
  923SOL     MW 3692   1.426   1.201   2.049  0.0005 -0.0006 -0.0016
  924SOL     OW 3693   1.265   1.540   1.671  0.4694 -0.4292  0.4607
  924SOL    HW1 3694   1.336   1.512   1.613  0.7453 -1.7496  1.3802
  924SOL    HW2 3695   1.256   1.468   1.733  0.1667  0.9106  2.0501
  924SOL     MW 3696   1.273   1.527   1.671  0.0005 -0.0006 -0.0016
  925SOL     OW 3697   1.779   1.438   0.820  0.0965  0.5537 -0.4963
  925SOL    HW1 3698   1.731   1.521   0.813  1.3514  1.2624 -1.0593
  925SOL    HW2 3699   1.830   1.433   0.740  0.5885 -0.4134 -0.1329
  925SOL     MW 3700   1.779   1.448   0.809  0.0005 -0.0006 -0.0016
  926SOL     OW 3701   0.426   0.914   1.793 -0.4114  0.3273 -0.2546
  926SOL    HW1 3702   0.516   0.912   1.826 -0.6300  1.9430  0.5219
  926SOL    HW2 3703   0.371   0.917   1.871 -0.9305  4.7204 -0.5003
  926SOL     MW 3704   0.431   0.914   1.807  0.0005 -0.0006 -0.0016
  927SOL     OW 3705   1.628   1.383   1.968 -0.0502 -0.2682 -0.0044
  927SOL    HW1 3706   1.550   1.342   2.002 -0.6426 -0.7072 -1.7726
  927SOL    HW2 3707   1.695   1.368   2.034 -0.7425 -2.3811  0.2675
  927SOL     MW 3708   1.627   1.376   1.981  0.0005 -0.0006 -0.0016
  928SOL     OW 3709   0.003   1.270   2.251 -0.3365  0.2944 -0.0550
  928SOL    HW1 3710   0.074   1.215   2.283 -0.1028  0.9086  0.5165
  928SOL    HW2 3711  -0.073   1.244   2.304 -0.2726  0.3800  0.0803
  928SOL     MW 3712   0.002   1.260   2.262  0.0005 -0.0006 -0.0016
  929SOL     OW 3713   2.764   2.941   2.262  0.6117  0.0817  0.0826
  929SOL    HW1 3714   2.736   2.946   2.353  0.2233 -0.8874  0.0244
  929SOL    HW2 3715   2.860   2.940   2.266  0.7034  2.8498  0.3070
  929SOL     MW 3716   2.773   2.941   2.274  0.0005 -0.0006 -0.0016
  930SOL     OW 3717   1.761   2.924   3.038 -0.0011  0.5258  0.2774
  930SOL    HW1 3718   1.830   2.947   3.100  0.3047  0.9800 -0.2230
  930SOL    HW2 3719   1.680   2.935   3.087  0.1657  2.0967  0.2440
  930SOL     MW 3720   1.759   2.928   3.053  0.0005 -0.0006 -0.0016
  931SOL     OW 3721   0.796   2.368   1.045 -0.2292  0.7016  0.8748
  931SOL    HW1 3722   0.787   2.273   1.056  2.3109  0.2427 -0.2251
  931SOL    HW2 3723   0.709   2.398   1.018 -1.9376 -0.7619  4.2386
  931SOL     MW 3724   0.784   2.360   1.043  0.0005 -0.0006 -0.0016
  932SOL     OW 3725   0.590  -0.005   2.109  0.0513 -0.3149 -0.4928
  932SOL    HW1 3726   0.567   0.055   2.038  0.7687 -1.9094 -2.1526
  932SOL    HW2 3727   0.683   0.011   2.125 -0.5212  1.4538  1.5885
  932SOL     MW 3728   0.599   0.005   2.102  0.0005 -0.0006 -0.0016
  933SOL     OW 3729   0.040   2.909   0.988  0.0475 -0.2375  0.0944
  933SOL    HW1 3730   0.089   2.975   1.038 -2.5884  1.6318  0.4255
  933SOL    HW2 3731   0.032   2.946   0.900  2.1883 -2.2010 -1.0330
  933SOL     MW 3732   0.046   2.922   0.983  0.0005 -0.0006 -0.0016
  934SOL     OW 3733   3.087   1.136   0.403 -0.2928  0.1061 -0.0177
  934SOL    HW1 3734   3.153   1.072   0.377 -0.4676 -0.6336  1.2836
  934SOL    HW2 3735   3.105   1.212   0.348 -0.2403 -1.1245 -1.7731
  934SOL     MW 3736   3.098   1.138   0.393  0.0005 -0.0006 -0.0016
  935SOL     OW 3737   1.370   2.997   2.842  0.2912  0.1588  0.2746
  935SOL    HW1 3738   1.366   3.086   2.877  0.7060  0.3062 -0.0423
  935SOL    HW2 3739   1.279   2.973   2.827  0.1701  0.4883  0.4706
  935SOL     MW 3740   1.358   3.006   2.845  0.0005 -0.0006 -0.0016
  936SOL     OW 3741   0.019   2.020   0.061 -0.1054 -0.6047  0.2985
  936SOL    HW1 3742  -0.047   2.041  -0.006  0.2097 -0.3994  0.0524
  936SOL    HW2 3743   0.037   1.927   0.048  0.3143 -0.4521 -0.2229
  936SOL     MW 3744   0.013   2.011   0.051  0.0005 -0.0006 -0.0016
  937SOL     OW 3745   1.158   1.780   1.479  0.2405  0.3033  0.3343
  937SOL    HW1 3746   1.234   1.838   1.479  0.0733  0.5490  1.5654
  937SOL    HW2 3747   1.129   1.778   1.570 -1.3210  0.3227 -0.1311
  937SOL     MW 3748   1.164   1.787   1.490  0.0005 -0.0006 -0.0016
  938SOL     OW 3749   0.085   2.370   0.027 -0.6886 -0.1581  0.2624
  938SOL    HW1 3750   0.161   2.404   0.075 -1.0620  1.9990 -0.5540
  938SOL    HW2 3751   0.123   2.314  -0.041  0.3039  1.6540 -0.7640
  938SOL     MW 3752   0.100   2.368   0.024  0.0005 -0.0006 -0.0016
  939SOL     OW 3753   0.122   1.465   0.838  0.0705 -0.0136  0.1096
  939SOL    HW1 3754   0.216   1.454   0.825 -0.1651 -2.2842 -0.1684
  939SOL    HW2 3755   0.084   1.445   0.752 -0.7691 -2.1486  0.8922
  939SOL     MW 3756   0.129   1.461   0.825  0.0005 -0.0006 -0.0016
  940SOL     OW 3757   0.288   0.382   2.004 -0.4664  0.4298 -0.1630
  940SOL    HW1 3758   0.322   0.298   1.974 -1.0863 -0.0325  0.3767
  940SOL    HW2 3759   0.194   0.377   1.985 -0.4334  1.1779 -0.5253
  940SOL     MW 3760   0.280   0.370   1.998  0.0005 -0.0006 -0.0016
  941SOL     OW 3761   1.890   1.935   1.335  0.7192  0.2461  0.5307
  941SOL    HW1 3762   1.825   1.886   1.386  1.2311 -0.4568  0.5232
  941SOL    HW2 3763   1.839   2.002   1.289  0.2166  0.8312  1.8620
  941SOL     MW 3764   1.875   1.938   1.336  0.0005 -0.0006 -0.0016
  942SOL     OW 3765   2.011   2.807   0.269  0.2810  0.0054 -0.3779
  942SOL    HW1 3766   1.964   2.879   0.227 -0.5737 -1.0743 -1.3499
  942SOL    HW2 3767   1.983   2.810   0.361  0.9915  1.4703 -0.1955
  942SOL     MW 3768   2.001   2.816   0.276  0.0005 -0.0006 -0.0016
  943SOL     OW 3769   1.283   2.523   1.143  0.1954 -0.0799  0.0625
  943SOL    HW1 3770   1.346   2.541   1.073  0.7612  0.0708  0.6012
  943SOL    HW2 3771   1.204   2.571   1.117  0.7756  0.9276  0.0921
  943SOL     MW 3772   1.281   2.532   1.130  0.0005 -0.0006 -0.0016
  944SOL     OW 3773   2.518   0.156   1.711 -0.1736  0.2482  0.5868
  944SOL    HW1 3774   2.607   0.136   1.740 -0.1301 -1.1458 -0.4095
  944SOL    HW2 3775   2.526   0.174   1.618 -0.6465  2.3367  0.9143
  944SOL     MW 3776   2.530   0.155   1.703  0.0005 -0.0006 -0.0016
  945SOL     OW 3777   0.424   2.577   1.074  0.0507  0.9288 -0.4251
  945SOL    HW1 3778   0.483   2.644   1.108  1.1705  0.4508 -1.3404
  945SOL    HW2 3779   0.341   2.622   1.062  0.4314  1.8187  0.1780
  945SOL     MW 3780   0.421   2.592   1.077  0.0005 -0.0006 -0.0016
  946SOL     OW 3781   0.242   1.449   1.885 -0.0284  0.3557 -0.0012
  946SOL    HW1 3782   0.293   1.528   1.901  0.4274  0.1915 -0.6216
  946SOL    HW2 3783   0.249   1.435   1.790 -0.1853 -0.3737  0.0925
  946SOL     MW 3784   0.249   1.457   1.874  0.0005 -0.0006 -0.0016
  947SOL     OW 3785   1.665   0.978   2.739  0.3621 -0.1294 -0.4313
  947SOL    HW1 3786   1.570   0.985   2.727  0.3962 -0.1803 -0.7436
  947SOL    HW2 3787   1.675   0.941   2.827  0.1132  0.7619 -0.0115
  947SOL     MW 3788   1.654   0.974   2.749  0.0005 -0.0006 -0.0016
  948SOL     OW 3789   1.898   0.611   1.240  0.2105  0.2184  0.1703
  948SOL    HW1 3790   1.955   0.541   1.273 -1.6054 -0.3980  2.2288
  948SOL    HW2 3791   1.921   0.619   1.147  1.7767 -1.8086  0.3152
  948SOL     MW 3792   1.908   0.603   1.232  0.0005 -0.0006 -0.0016
  949SOL     OW 3793   0.627   2.810   0.198 -0.5657  0.1136 -0.4228
  949SOL    HW1 3794   0.588   2.834   0.283 -0.8066 -4.2268  0.9252
  949SOL    HW2 3795   0.714   2.777   0.221 -0.6292 -1.1113 -1.8574
  949SOL     MW 3796   0.633   2.809   0.212  0.0005 -0.0006 -0.0016
  950SOL     OW 3797   2.188   2.385   2.161 -0.0530 -0.3592 -0.0172
  950SOL    HW1 3798   2.247   2.451   2.124  0.2401  0.0804  1.2135
  950SOL    HW2 3799   2.103   2.406   2.121  0.2732  0.0440 -0.5219
  950SOL     MW 3800   2.184   2.396   2.151  0.0005 -0.0006 -0.0016
  951SOL     OW 3801   3.019   0.662   0.964 -0.6880  0.4333 -0.4290
  951SOL    HW1 3802   2.969   0.622   1.035 -1.4843  1.1760 -0.5541
  951SOL    HW2 3803   3.023   0.593   0.897 -1.7153  0.4059 -0.4898
  951SOL     MW 3804   3.013   0.648   0.964  0.0005 -0.0006 -0.0016
  952SOL     OW 3805   0.538   0.987   0.690  0.0886 -0.5784 -0.7087
  952SOL    HW1 3806   0.615   1.004   0.637  0.6557 -1.8757 -0.3409
  952SOL    HW2 3807   0.558   0.907   0.738  0.1434  1.1383  2.4531
  952SOL     MW 3808   0.550   0.979   0.689  0.0005 -0.0006 -0.0016
  953SOL     OW 3809   2.195   2.120   2.300  0.9798 -0.1291 -0.3089
  953SOL    HW1 3810   2.124   2.119   2.364  0.9157 -1.4475 -0.3627
  953SOL    HW2 3811   2.167   2.184   2.234 -1.1696 -2.0050 -1.3691
  953SOL     MW 3812   2.182   2.128   2.299  0.0005 -0.0006 -0.0016
  954SOL     OW 3813   0.494   1.770   0.015 -0.3061 -0.2260 -0.2811
  954SOL    HW1 3814   0.487   1.697  -0.046  2.1563  1.6352 -3.1286
  954SOL    HW2 3815   0.583   1.763   0.051 -0.6442  0.4442  0.7361
  954SOL     MW 3816   0.505   1.760   0.012  0.0005 -0.0006 -0.0016
  955SOL     OW 3817   1.272   2.642   1.928 -0.1049  0.0097  0.7867
  955SOL    HW1 3818   1.338   2.646   1.997 -0.3681 -0.9920  1.1199
  955SOL    HW2 3819   1.312   2.686   1.854 -0.1080  1.7994  1.7868
  955SOL     MW 3820   1.286   2.648   1.928  0.0005 -0.0006 -0.0016
  956SOL     OW 3821   2.221   1.129   2.412  0.6773  0.6092  0.1678
  956SOL    HW1 3822   2.284   1.067   2.450  1.1113  0.4131 -0.8420
  956SOL    HW2 3823   2.267   1.165   2.336 -0.7568 -0.2269 -1.1536
  956SOL     MW 3824   2.235   1.125   2.407  0.0005 -0.0006 -0.0016
  957SOL     OW 3825   1.021   1.387   1.213  0.0355 -0.2846 -0.1888
  957SOL    HW1 3826   1.026   1.398   1.118  1.3918  0.0966 -0.0959
  957SOL    HW2 3827   0.931   1.361   1.230 -0.0446 -1.0519 -1.6559
  957SOL     MW 3828   1.010   1.385   1.203  0.0005 -0.0006 -0.0016
  958SOL     OW 3829   2.160   3.013   3.032 -0.4760 -0.1233 -0.2678
  958SOL    HW1 3830   2.250   3.017   3.064 -0.5078 -1.1674 -0.0128
  958SOL    HW2 3831   2.164   2.953   2.957 -0.6226  1.3435 -1.4914
  958SOL     MW 3832   2.172   3.006   3.027  0.0005 -0.0006 -0.0016
  959SOL     OW 3833   2.010   1.273   2.479 -0.4011 -0.3644 -0.6026
  959SOL    HW1 3834   2.066   1.200   2.453 -1.5086 -1.9565  1.2515
  959SOL    HW2 3835   1.931   1.263   2.427  0.3298  0.9810 -2.0804
  959SOL     MW 3836   2.007   1.263   2.469  0.0005 -0.0006 -0.0016
  960SOL     OW 3837   1.009   2.829   0.561 -0.1282  0.8657  0.0653
  960SOL    HW1 3838   1.054   2.913   0.564  0.4312  0.5316  1.8346
  960SOL    HW2 3839   1.056   2.774   0.624 -0.3942 -0.8275 -1.1409
  960SOL     MW 3840   1.021   2.833   0.569  0.0005 -0.0006 -0.0016
  961SOL     OW 3841   2.301   1.434   0.168 -0.0052 -0.1766 -0.0698
  961SOL    HW1 3842   2.326   1.345   0.145 -2.6297 -0.8169 -0.8679
  961SOL    HW2 3843   2.286   1.477   0.083  1.6895  1.2382  0.2834
  961SOL     MW 3844   2.302   1.428   0.154  0.0005 -0.0006 -0.0016
  962SOL     OW 3845   0.519   0.513   0.948  0.3697 -0.2227 -0.4135
  962SOL    HW1 3846   0.445   0.570   0.925  1.2596  0.3808 -2.0197
  962SOL    HW2 3847   0.540   0.536   1.038 -0.2257  0.9437 -0.5497
  962SOL     MW 3848   0.512   0.524   0.956  0.0005 -0.0006 -0.0016
  963SOL     OW 3849   1.504   2.761   2.777  0.0963  0.6455  1.2225
  963SOL    HW1 3850   1.456   2.842   2.791 -0.5518  0.3879  0.5564
  963SOL    HW2 3851   1.499   2.715   2.861 -0.6000  0.7425  1.2361
  963SOL     MW 3852   1.497   2.765   2.790  0.0005 -0.0006 -0.0016
  964SOL     OW 3853   2.974   1.946   0.485 -0.2597  0.4417 -0.2612
  964SOL    HW1 3854   3.054   1.942   0.432  0.6304 -0.1923  1.0869
  964SOL    HW2 3855   3.000   1.992   0.565 -0.6264 -1.7353  1.1816
  964SOL     MW 3856   2.988   1.952   0.488  0.0005 -0.0006 -0.0016
  965SOL     OW 3857   3.048   0.877   0.583  0.0170 -0.8541  0.3931
  965SOL    HW1 3858   3.140   0.899   0.593 -0.3872  0.7456  0.9022
  965SOL    HW2 3859   3.011   0.950   0.534 -0.5171 -2.6862 -2.1813
  965SOL     MW 3860   3.055   0.889   0.578  0.0005 -0.0006 -0.0016
  966SOL     OW 3861   1.129   0.064   2.762  0.5304 -0.5293 -0.2656
  966SOL    HW1 3862   1.212   0.070   2.716  0.7600 -1.2142  0.0407
  966SOL    HW2 3863   1.120  -0.029   2.783  0.6395 -0.1805  1.4566
  966SOL     MW 3864   1.138   0.052   2.759  0.0005 -0.0006 -0.0016
  967SOL     OW 3865   0.841   1.992   0.631  0.3474 -0.1858  0.0994
  967SOL    HW1 3866   0.767   2.052   0.634 -0.3621 -1.0528  0.2578
  967SOL    HW2 3867   0.865   1.977   0.722 -1.8322 -2.9386  0.3669
  967SOL     MW 3868   0.835   1.998   0.643  0.0005 -0.0006 -0.0016
  968SOL     OW 3869   1.675   1.797   1.080 -0.2825  0.2361 -0.2145
  968SOL    HW1 3870   1.612   1.771   1.148 -1.0346 -1.6403 -1.5433
  968SOL    HW2 3871   1.754   1.746   1.101 -0.3459  0.0344 -0.4682
  968SOL     MW 3872   1.677   1.787   1.092  0.0005 -0.0006 -0.0016
  969SOL     OW 3873   0.044   1.169   0.823 -0.5377 -0.4476 -0.3581
  969SOL    HW1 3874  -0.046   1.141   0.841 -0.3692 -0.4352  0.5465
  969SOL    HW2 3875   0.034   1.247   0.768 -1.2243  1.2521  1.9804
  969SOL     MW 3876   0.031   1.176   0.818  0.0005 -0.0006 -0.0016
  970SOL     OW 3877   0.824   2.399   2.745 -0.6302 -0.5989 -0.4592
  970SOL    HW1 3878   0.857   2.475   2.793 -1.3972 -1.0745  0.8620
  970SOL    HW2 3879   0.900   2.340   2.740 -0.5576 -0.5731  0.2329
  970SOL     MW 3880   0.838   2.401   2.750  0.0005 -0.0006 -0.0016
  971SOL     OW 3881   2.088   1.825   1.167  0.5209  0.1736  0.3974
  971SOL    HW1 3882   2.012   1.881   1.183  1.3044  1.4814 -0.2520
  971SOL    HW2 3883   2.137   1.871   1.098  1.0088 -1.5248 -0.4288
  971SOL     MW 3884   2.084   1.838   1.160  0.0005 -0.0006 -0.0016
  972SOL     OW 3885   0.526   1.595   1.644 -0.5448 -0.4337  0.2311
  972SOL    HW1 3886   0.553   1.686   1.648 -1.9944  0.1042 -1.1425
  972SOL    HW2 3887   0.596   1.551   1.595 -0.9091  0.4264 -1.1166
  972SOL     MW 3888   0.538   1.601   1.638  0.0005 -0.0006 -0.0016
  973SOL     OW 3889   2.138   2.466   1.427  0.3862  0.2197 -0.3525
  973SOL    HW1 3890   2.230   2.470   1.456  0.4087 -1.8569 -0.0002
  973SOL    HW2 3891   2.117   2.556   1.403  2.2302  0.9219  0.4556
  973SOL     MW 3892   2.147   2.478   1.428  0.0005 -0.0006 -0.0016
  974SOL     OW 3893   1.210   3.037   0.564 -0.0170 -0.1611  0.1723
  974SOL    HW1 3894   1.229   3.089   0.485 -1.5628  2.9903  1.7111
  974SOL    HW2 3895   1.234   3.094   0.637 -1.3910 -1.8160  2.0220
  974SOL     MW 3896   1.216   3.051   0.563  0.0005 -0.0006 -0.0016
  975SOL     OW 3897   0.569   0.510   2.381 -0.3675  0.1589 -0.2217
  975SOL    HW1 3898   0.585   0.596   2.343 -0.8706  0.2172 -0.3135
  975SOL    HW2 3899   0.556   0.452   2.305 -1.2091  0.2422 -0.1519
  975SOL     MW 3900   0.570   0.513   2.366  0.0005 -0.0006 -0.0016
  976SOL     OW 3901   0.815   2.867   2.344 -0.0850  0.1117  0.5300
  976SOL    HW1 3902   0.831   2.780   2.382  0.4708 -0.6707 -1.3771
  976SOL    HW2 3903   0.747   2.905   2.400 -0.4655 -1.6036  1.3164
  976SOL     MW 3904   0.808   2.861   2.356  0.0005 -0.0006 -0.0016
  977SOL     OW 3905   0.555   2.494   0.089 -0.1448  0.2360 -0.4942
  977SOL    HW1 3906   0.485   2.433   0.114 -0.8807  0.8137 -1.0769
  977SOL    HW2 3907   0.575   2.542   0.170  0.4654 -0.7758 -0.0222
  977SOL     MW 3908   0.548   2.493   0.103  0.0005 -0.0006 -0.0016
  978SOL     OW 3909   1.448   2.616   3.028 -0.1903  0.1147 -0.2725
  978SOL    HW1 3910   1.519   2.552   3.023 -1.2092 -1.1478  0.7325
  978SOL    HW2 3911   1.376   2.576   2.979 -1.0419  0.1696  0.8913
  978SOL     MW 3912   1.448   2.603   3.021  0.0005 -0.0006 -0.0016
  979SOL     OW 3913   0.650   2.905   3.070  0.6640  0.3415 -0.3815
  979SOL    HW1 3914   0.646   2.878   3.162  1.7550 -0.1615 -0.4636
  979SOL    HW2 3915   0.629   2.825   3.022  2.8078 -0.1410 -0.6065
  979SOL     MW 3916   0.647   2.891   3.076  0.0005 -0.0006 -0.0016
  980SOL     OW 3917   0.682   1.860   1.912 -0.0183  0.8809 -0.1692
  980SOL    HW1 3918   0.620   1.851   1.840  0.7094  2.5794 -1.0516
  980SOL    HW2 3919   0.628   1.863   1.991 -0.8281 -0.9077 -0.5923
  980SOL     MW 3920   0.667   1.859   1.913  0.0005 -0.0006 -0.0016
  981SOL     OW 3921   2.213   0.441   1.481  0.2500 -0.6485  0.1193
  981SOL    HW1 3922   2.163   0.429   1.401  0.7965 -4.2478  0.1337
  981SOL    HW2 3923   2.155   0.491   1.538 -0.1632  1.9766 -2.3852
  981SOL     MW 3924   2.200   0.446   1.478  0.0005 -0.0006 -0.0016
  982SOL     OW 3925   2.228   1.449   0.515  0.3075 -0.6156 -0.2790
  982SOL    HW1 3926   2.188   1.501   0.585  1.0311 -0.5418  0.0886
  982SOL    HW2 3927   2.162   1.448   0.446  0.2252  0.6700 -0.2433
  982SOL     MW 3928   2.214   1.455   0.515  0.0005 -0.0006 -0.0016
  983SOL     OW 3929   2.969   0.919   1.702 -0.0295  0.4509  0.2733
  983SOL    HW1 3930   2.946   0.860   1.630  1.9590 -0.5352  0.3599
  983SOL    HW2 3931   2.885   0.945   1.741 -1.0079 -1.9981 -0.0415
  983SOL     MW 3932   2.956   0.915   1.698  0.0005 -0.0006 -0.0016
  984SOL     OW 3933   0.197   2.140   0.237 -0.1367  0.3395 -0.1331
  984SOL    HW1 3934   0.130   2.105   0.178 -1.8356  0.9544  1.3244
  984SOL    HW2 3935   0.171   2.109   0.324  0.7295  1.6625  0.6445
  984SOL     MW 3936   0.185   2.132   0.241  0.0005 -0.0006 -0.0016
  985SOL     OW 3937   2.978   2.719   1.106  0.0025  0.4518 -0.2178
  985SOL    HW1 3938   2.983   2.637   1.056  1.5164  1.4808 -1.8875
  985SOL    HW2 3939   3.032   2.781   1.056  0.1433  2.0622  1.7928
  985SOL     MW 3940   2.986   2.716   1.093  0.0005 -0.0006 -0.0016
  986SOL     OW 3941   0.370   1.799   0.293  0.5706 -0.2725 -0.5036
  986SOL    HW1 3942   0.409   1.739   0.357 -1.8501 -1.1209  0.2831
  986SOL    HW2 3943   0.431   1.798   0.219  2.3897 -0.8892  0.9097
  986SOL     MW 3944   0.383   1.791   0.292  0.0005 -0.0006 -0.0016
  987SOL     OW 3945   1.871   2.319   2.195 -0.2613  0.0456 -0.1215
  987SOL    HW1 3946   1.803   2.253   2.186  1.3064 -1.5557 -0.8739
  987SOL    HW2 3947   1.914   2.322   2.110  0.5648  1.0442  0.3065
  987SOL     MW 3948   1.868   2.311   2.183  0.0005 -0.0006 -0.0016
  988SOL     OW 3949   2.944   1.227   1.844  0.2430  0.4322  0.2892
  988SOL    HW1 3950   2.864   1.251   1.890 -0.4507 -0.5214 -0.3654
  988SOL    HW2 3951   2.938   1.273   1.760 -1.2959 -2.1264 -1.1430
  988SOL     MW 3952   2.933   1.236   1.839  0.0005 -0.0006 -0.0016
  989SOL     OW 3953   1.478   1.634   0.515  0.7291  0.2173  0.2184
  989SOL    HW1 3954   1.414   1.694   0.475 -0.9160 -0.2650  1.9714
  989SOL    HW2 3955   1.562   1.661   0.478 -0.2121  2.2637 -0.6207
  989SOL     MW 3956   1.480   1.645   0.505  0.0005 -0.0006 -0.0016
  990SOL     OW 3957   0.041   0.824   1.318  0.0219 -0.3124 -0.2272
  990SOL    HW1 3958   0.129   0.844   1.350  1.5980 -1.5450 -3.3222
  990SOL    HW2 3959   0.001   0.909   1.301  1.3301  0.2613 -0.5100
  990SOL     MW 3960   0.047   0.837   1.320  0.0005 -0.0006 -0.0016
  991SOL     OW 3961   1.328   0.511   0.600  0.3027  1.0332 -0.5630
  991SOL    HW1 3962   1.335   0.506   0.695  2.0832 -0.3434 -0.7154
  991SOL    HW2 3963   1.266   0.441   0.577 -0.2858  1.5008 -0.4088
  991SOL     MW 3964   1.321   0.501   0.609  0.0005 -0.0006 -0.0016
  992SOL     OW 3965   3.009   3.015   0.375 -0.0205 -0.4801  0.8021
  992SOL    HW1 3966   2.982   3.101   0.342  1.0077  0.6927  2.8393
  992SOL    HW2 3967   2.940   2.990   0.435  0.5564 -0.1952  1.5984
  992SOL     MW 3968   2.997   3.023   0.378  0.0005 -0.0006 -0.0016
  993SOL     OW 3969   0.639   2.589   0.732  0.2724  0.0951 -0.2813
  993SOL    HW1 3970   0.665   2.548   0.649 -2.4359 -2.0412 -0.2137
  993SOL    HW2 3971   0.559   2.637   0.711 -1.9006 -2.4825  1.4028
  993SOL     MW 3972   0.632   2.590   0.719  0.0005 -0.0006 -0.0016
  994SOL     OW 3973   2.539   0.285   0.598  0.1127 -0.7547  0.6779
  994SOL    HW1 3974   2.509   0.363   0.550 -0.5051 -0.6006  1.3101
  994SOL    HW2 3975   2.517   0.303   0.689  2.2371 -0.5832  1.2035
  994SOL     MW 3976   2.532   0.298   0.603  0.0005 -0.0006 -0.0016
  995SOL     OW 3977   0.337   2.643   2.350 -0.1919  0.0889  0.5135
  995SOL    HW1 3978   0.344   2.679   2.439 -0.1866  1.7661 -0.1360
  995SOL    HW2 3979   0.258   2.683   2.314 -0.7714 -1.3784  0.0840
  995SOL     MW 3980   0.328   2.653   2.357  0.0005 -0.0006 -0.0016
  996SOL     OW 3981   0.397   0.967   2.228 -0.0965  0.5697 -0.3747
  996SOL    HW1 3982   0.455   1.038   2.200  1.4760 -0.3635  0.4020
  996SOL    HW2 3983   0.336   1.009   2.288  0.6514  1.3236 -0.1174
  996SOL     MW 3984   0.397   0.982   2.232  0.0005 -0.0006 -0.0016
  997SOL     OW 3985   2.945   1.158   2.858  0.7386 -0.3501  0.1147
  997SOL    HW1 3986   2.922   1.248   2.880  1.0419 -0.2187 -0.0914
  997SOL    HW2 3987   3.004   1.167   2.783  1.3185 -0.6838  0.5249
  997SOL     MW 3988   2.950   1.171   2.851  0.0005 -0.0006 -0.0016
  998SOL     OW 3989   0.281   2.168   2.409  0.2113 -0.4829 -0.0317
  998SOL    HW1 3990   0.240   2.091   2.368 -0.7551 -0.0287  0.0837
  998SOL    HW2 3991   0.297   2.228   2.336 -0.6904 -0.0444  0.1303
  998SOL     MW 3992   0.278   2.166   2.394  0.0005 -0.0006 -0.0016
  999SOL     OW 3993   1.250   2.519   2.260  0.0784  0.4873  0.6336
  999SOL    HW1 3994   1.221   2.609   2.248 -0.3437  0.0876 -2.0195
  999SOL    HW2 3995   1.194   2.484   2.328 -2.2921  1.2191 -0.8283
  999SOL     MW 3996   1.239   2.526   2.267  0.0005 -0.0006 -0.0016
 1000SOL     OW 3997   2.087   1.129   2.049  0.1879  0.3754 -0.3993
 1000SOL    HW1 3998   2.146   1.082   1.989 -1.3985 -2.1604 -0.1222
 1000SOL    HW2 3999   2.055   1.203   1.997 -0.0310 -0.9349 -2.2475
 1000SOL     MW 4000   2.091   1.132   2.034  0.0005 -0.0006 -0.0016
   3.12184   3.12184   3.12184
