Built with Packmol
 4000
    1SOL     OW    1   1.316   0.669   2.686
    1SOL    HW1    2   1.246   0.606   2.704
    1SOL    HW2    3   1.276   0.755   2.703
    1SOL     MW    4   1.307   0.671   2.689
    2SOL     OW    5   1.872   2.498   0.942
    2SOL    HW1    6   1.796   2.463   0.897
    2SOL    HW2    7   1.890   2.434   1.012
    2SOL     MW    8   1.868   2.489   0.944
    3SOL     OW    9   0.855   1.030   1.674
    3SOL    HW1   10   0.938   1.038   1.721
    3SOL    HW2   11   0.866   0.953   1.618
    3SOL     MW   12   0.863   1.024   1.673
    4SOL     OW   13   0.918   2.902   0.051
    4SOL    HW1   14   1.008   2.869   0.050
    4SOL    HW2   15   0.865   2.827   0.022
    4SOL     MW   16   0.921   2.892   0.049
    5SOL     OW   17   2.031   2.435   2.192
    5SOL    HW1   18   2.089   2.504   2.161
    5SOL    HW2   19   1.961   2.481   2.238
    5SOL     MW   20   2.030   2.445   2.193
    6SOL     OW   21   0.060   1.086   2.796
    6SOL    HW1   22  -0.019   1.095   2.743
    6SOL    HW2   23   0.041   1.136   2.876
    6SOL     MW   24   0.051   1.090   2.799
    7SOL     OW   25   0.114   2.471   2.295
    7SOL    HW1   26   0.091   2.443   2.207
    7SOL    HW2   27   0.200   2.514   2.284
    7SOL     MW   28   0.120   2.473   2.286
    8SOL     OW   29   2.851   1.947   0.655
    8SOL    HW1   30   2.812   2.028   0.685
    8SOL    HW2   31   2.912   1.974   0.585
    8SOL     MW   32   2.854   1.956   0.652
    9SOL     OW   33   1.779   1.594   1.638
    9SOL    HW1   34   1.819   1.548   1.564
    9SOL    HW2   35   1.685   1.591   1.619
    9SOL     MW   36   1.774   1.589   1.630
   10SOL     OW   37   1.230   0.166   0.145
   10SOL    HW1   38   1.251   0.247   0.193
   10SOL    HW2   39   1.134   0.162   0.147
   10SOL     MW   40   1.223   0.173   0.149
   11SOL     OW   41   1.357   0.086   0.396
   11SOL    HW1   42   1.330   0.177   0.386
   11SOL    HW2   43   1.386   0.060   0.308
   11SOL     MW   44   1.358   0.092   0.388
   12SOL     OW   45   1.524   0.991   1.505
   12SOL    HW1   46   1.606   1.014   1.548
   12SOL    HW2   47   1.547   0.986   1.411
   12SOL     MW   48   1.534   0.992   1.500
   13SOL     OW   49   2.885   2.885   0.393
   13SOL    HW1   50   2.955   2.946   0.416
   13SOL    HW2   51   2.890   2.817   0.462
   13SOL     MW   52   2.891   2.884   0.402
   14SOL     OW   53   2.708   1.544   0.096
   14SOL    HW1   54   2.739   1.467   0.048
   14SOL    HW2   55   2.776   1.559   0.163
   14SOL     MW   56   2.717   1.539   0.097
   15SOL     OW   57   1.808   2.709   2.404
   15SOL    HW1   58   1.892   2.681   2.441
   15SOL    HW2   59   1.803   2.664   2.319
   15SOL     MW   60   1.814   2.702   2.400
   16SOL     OW   61   2.207   2.284   2.582
   16SOL    HW1   62   2.194   2.207   2.527
   16SOL    HW2   63   2.194   2.359   2.523
   16SOL     MW   64   2.204   2.285   2.572
   17SOL     OW   65   3.078   2.676   1.436
   17SOL    HW1   66   3.081   2.581   1.447
   17SOL    HW2   67   3.075   2.689   1.341
   17SOL     MW   68   3.077   2.669   1.429
   18SOL     OW   69   1.033   0.829   2.263
   18SOL    HW1   70   0.973   0.762   2.230
   18SOL    HW2   71   1.050   0.885   2.187
   18SOL     MW   72   1.029   0.828   2.254
   19SOL     OW   73   2.943   2.431   0.307
   19SOL    HW1   74   2.991   2.368   0.254
   19SOL    HW2   75   2.853   2.397   0.311
   19SOL     MW   76   2.939   2.422   0.304
   20SOL     OW   77   2.264   2.680   0.118
   20SOL    HW1   78   2.260   2.682   0.022
   20SOL    HW2   79   2.179   2.714   0.147
   20SOL     MW   80   2.256   2.682   0.112
   21SOL     OW   81   1.491   0.689   0.331
   21SOL    HW1   82   1.399   0.688   0.305
   21SOL    HW2   83   1.529   0.762   0.281
   21SOL     MW   84   1.486   0.696   0.325
   22SOL     OW   85   0.971   1.904   0.512
   22SOL    HW1   86   1.063   1.927   0.503
   22SOL    HW2   87   0.940   1.955   0.587
   22SOL     MW   88   0.976   1.911   0.517
   23SOL     OW   89   1.030   3.018   0.308
   23SOL    HW1   90   0.966   3.036   0.377
   23SOL    HW2   91   0.988   2.950   0.254
   23SOL     MW   92   1.020   3.014   0.309
   24SOL     OW   93   0.852   1.876   2.342
   24SOL    HW1   94   0.783   1.835   2.291
   24SOL    HW2   95   0.827   1.968   2.348
   24SOL     MW   96   0.844   1.881   2.339
   25SOL     OW   97   2.783   0.245   3.063
   25SOL    HW1   98   2.689   0.250   3.080
   25SOL    HW2   99   2.808   0.336   3.044
   25SOL     MW  100   2.777   0.254   3.064
   26SOL     OW  101   2.358   2.465   2.394
   26SOL    HW1  102   2.425   2.446   2.458
   26SOL    HW2  103   2.344   2.381   2.348
   26SOL     MW  104   2.362   2.456   2.396
   27SOL     OW  105   1.735   2.127   2.348
   27SOL    HW1  106   1.733   2.122   2.443
   27SOL    HW2  107   1.646   2.156   2.324
   27SOL     MW  108   1.727   2.130   2.354
   28SOL     OW  109   1.168   0.326   1.644
   28SOL    HW1  110   1.142   0.243   1.604
   28SOL    HW2  111   1.088   0.356   1.690
   28SOL     MW  112   1.159   0.321   1.645
   29SOL     OW  113   2.257   2.323   1.400
   29SOL    HW1  114   2.307   2.258   1.350
   29SOL    HW2  115   2.177   2.336   1.349
   29SOL     MW  116   2.254   2.318   1.391
   30SOL     OW  117   1.177   0.194   1.162
   30SOL    HW1  118   1.158   0.114   1.211
   30SOL    HW2  119   1.115   0.192   1.088
   30SOL     MW  120   1.169   0.187   1.160
   31SOL     OW  121   2.881   2.864   2.325
   31SOL    HW1  122   2.826   2.802   2.373
   31SOL    HW2  123   2.920   2.918   2.394
   31SOL     MW  124   2.880   2.863   2.336
   32SOL     OW  125   0.068   1.405   2.531
   32SOL    HW1  126   0.143   1.454   2.498
   32SOL    HW2  127   0.009   1.473   2.566
   32SOL     MW  128   0.069   1.416   2.530
   33SOL     OW  129   2.074   2.861   0.740
   33SOL    HW1  130   2.027   2.876   0.659
   33SOL    HW2  131   2.129   2.784   0.723
   33SOL     MW  132   2.076   2.856   0.732
   34SOL     OW  133   2.432   1.898   1.327
   34SOL    HW1  134   2.475   1.931   1.248
   34SOL    HW2  135   2.477   1.942   1.400
   34SOL     MW  136   2.439   1.905   1.327
   35SOL     OW  137   0.457   1.248   0.660
   35SOL    HW1  138   0.372   1.204   0.657
   35SOL    HW2  139   0.464   1.292   0.575
   35SOL     MW  140   0.450   1.249   0.652
   36SOL     OW  141   2.311   2.452   0.420
   36SOL    HW1  142   2.261   2.416   0.493
   36SOL    HW2  143   2.265   2.534   0.398
   36SOL     MW  144   2.303   2.456   0.424
   37SOL     OW  145   2.599   2.931   2.780
   37SOL    HW1  146   2.599   2.999   2.714
   37SOL    HW2  147   2.673   2.952   2.838
   37SOL     MW  148   2.606   2.939   2.780
   38SOL     OW  149   1.736   0.539   1.001
   38SOL    HW1  150   1.813   0.548   0.945
   38SOL    HW2  151   1.704   0.450   0.984
   38SOL     MW  152   1.740   0.531   0.995
   39SOL     OW  153   2.326   2.032   0.952
   39SOL    HW1  154   2.313   1.996   0.864
   39SOL    HW2  155   2.360   1.958   1.004
   39SOL     MW  156   2.329   2.023   0.949
   40SOL     OW  157   1.691   0.474   1.860
   40SOL    HW1  158   1.670   0.482   1.953
   40SOL    HW2  159   1.772   0.423   1.859
   40SOL     MW  160   1.696   0.469   1.868
   41SOL     OW  161   2.560   2.696   3.061
   41SOL    HW1  162   2.629   2.671   3.122
   41SOL    HW2  163   2.592   2.777   3.020
   41SOL     MW  164   2.569   2.701   3.062
   42SOL     OW  165   1.096   1.871   3.055
   42SOL    HW1  166   1.090   1.938   3.122
   42SOL    HW2  167   1.132   1.794   3.101
   42SOL     MW  168   1.098   1.869   3.065
   43SOL     OW  169   2.308   1.321   1.116
   43SOL    HW1  170   2.334   1.317   1.208
   43SOL    HW2  171   2.245   1.249   1.106
   43SOL     MW  172   2.304   1.314   1.123
   44SOL     OW  173   1.329   1.218   0.314
   44SOL    HW1  174   1.238   1.214   0.285
   44SOL    HW2  175   1.380   1.186   0.239
   44SOL     MW  176   1.326   1.216   0.304
   45SOL     OW  177   1.170   2.356   2.197
   45SOL    HW1  178   1.263   2.355   2.215
   45SOL    HW2  179   1.151   2.447   2.170
   45SOL     MW  180   1.176   2.364   2.195
   46SOL     OW  181   1.192   1.730   1.193
   46SOL    HW1  182   1.274   1.777   1.184
   46SOL    HW2  183   1.124   1.796   1.173
   46SOL     MW  184   1.193   1.740   1.190
   47SOL     OW  185   0.382   0.744   1.711
   47SOL    HW1  186   0.339   0.681   1.768
   47SOL    HW2  187   0.311   0.798   1.676
   47SOL     MW  188   0.372   0.744   1.713
   48SOL     OW  189   0.697   0.144   2.829
   48SOL    HW1  190   0.724   0.169   2.741
   48SOL    HW2  191   0.760   0.076   2.856
   48SOL     MW  192   0.705   0.140   2.824
   49SOL     OW  193   2.855   1.789   2.625
   49SOL    HW1  194   2.869   1.820   2.714
   49SOL    HW2  195   2.917   1.839   2.572
   49SOL     MW  196   2.862   1.796   2.628
   50SOL     OW  197   2.364   1.538   2.230
   50SOL    HW1  198   2.270   1.535   2.245
   50SOL    HW2  199   2.401   1.479   2.297
   50SOL     MW  200   2.359   1.532   2.237
   51SOL     OW  201   2.051   1.642   0.900
   51SOL    HW1  202   1.968   1.620   0.859
   51SOL    HW2  203   2.059   1.580   0.973
   51SOL     MW  204   2.045   1.634   0.903
   52SOL     OW  205   2.401   2.021   2.949
   52SOL    HW1  206   2.390   2.096   3.006
   52SOL    HW2  207   2.359   2.047   2.866
   52SOL     MW  208   2.397   2.030   2.946
   53SOL     OW  209   3.077   0.710   0.501
   53SOL    HW1  210   3.037   0.754   0.427
   53SOL    HW2  211   3.081   0.617   0.474
   53SOL     MW  212   3.075   0.705   0.492
   54SOL     OW  213   0.751   0.696   2.232
   54SOL    HW1  214   0.750   0.639   2.156
   54SOL    HW2  215   0.674   0.669   2.284
   54SOL     MW  216   0.744   0.688   2.231
   55SOL     OW  217   1.354   2.785   2.601
   55SOL    HW1  218   1.403   2.704   2.591
   55SOL    HW2  219   1.405   2.836   2.665
   55SOL     MW  220   1.363   2.783   2.606
   56SOL     OW  221   2.243   2.767   2.409
   56SOL    HW1  222   2.195   2.752   2.490
   56SOL    HW2  223   2.217   2.855   2.381
   56SOL     MW  224   2.237   2.774   2.414
   57SOL     OW  225   1.735   2.581   0.630
   57SOL    HW1  226   1.773   2.549   0.549
   57SOL    HW2  227   1.806   2.630   0.672
   57SOL     MW  228   1.744   2.583   0.627
   58SOL     OW  229   1.252   0.064   2.041
   58SOL    HW1  230   1.172   0.056   1.990
   58SOL    HW2  231   1.225   0.039   2.130
   58SOL     MW  232   1.243   0.060   2.045
   59SOL     OW  233   1.193   1.835   2.860
   59SOL    HW1  234   1.265   1.869   2.913
   59SOL    HW2  235   1.236   1.786   2.789
   59SOL     MW  236   1.203   1.833   2.859
   60SOL     OW  237   0.094   2.718   2.737
   60SOL    HW1  238   0.028   2.721   2.669
   60SOL    HW2  239   0.096   2.626   2.765
   60SOL     MW  240   0.089   2.709   2.733
   61SOL     OW  241   0.606   0.264   2.537
   61SOL    HW1  242   0.680   0.233   2.485
   61SOL    HW2  243   0.570   0.337   2.485
   61SOL     MW  244   0.609   0.268   2.527
   62SOL     OW  245   1.032   2.250   0.409
   62SOL    HW1  246   1.079   2.321   0.453
   62SOL    HW2  247   1.093   2.220   0.340
   62SOL     MW  248   1.042   2.253   0.407
   63SOL     OW  249   0.586   0.298   1.100
   63SOL    HW1  250   0.680   0.310   1.090
   63SOL    HW2  251   0.552   0.387   1.111
   63SOL     MW  252   0.591   0.307   1.100
   64SOL     OW  253   1.203   2.813   1.206
   64SOL    HW1  254   1.160   2.796   1.122
   64SOL    HW2  255   1.135   2.856   1.259
   64SOL     MW  256   1.193   2.815   1.204
   65SOL     OW  257   1.494   1.388   0.717
   65SOL    HW1  258   1.529   1.455   0.776
   65SOL    HW2  259   1.518   1.419   0.629
   65SOL     MW  260   1.500   1.396   0.714
   66SOL     OW  261   2.763   1.621   1.941
   66SOL    HW1  262   2.852   1.609   1.973
   66SOL    HW2  263   2.711   1.641   2.020
   66SOL     MW  264   2.766   1.622   1.951
   67SOL     OW  265   1.501   1.239   2.963
   67SOL    HW1  266   1.518   1.158   2.916
   67SOL    HW2  267   1.568   1.242   3.032
   67SOL     MW  268   1.509   1.233   2.965
   68SOL     OW  269   2.667   0.049   1.677
   68SOL    HW1  270   2.761   0.059   1.660
   68SOL    HW2  271   2.630   0.137   1.662
   68SOL     MW  272   2.672   0.058   1.674
   69SOL     OW  273   0.712   0.757   1.798
   69SOL    HW1  274   0.785   0.702   1.826
   69SOL    HW2  275   0.751   0.844   1.783
   69SOL     MW  276   0.722   0.760   1.798
   70SOL     OW  277   0.017   2.210   2.386
   70SOL    HW1  278  -0.019   2.296   2.408
   70SOL    HW2  279   0.088   2.229   2.324
   70SOL     MW  280   0.021   2.219   2.383
   71SOL     OW  281   0.663   1.835   1.977
   71SOL    HW1  282   0.722   1.789   2.035
   71SOL    HW2  283   0.693   1.812   1.888
   71SOL     MW  284   0.671   1.829   1.974
   72SOL     OW  285   0.432   1.134   1.507
   72SOL    HW1  286   0.435   1.057   1.451
   72SOL    HW2  287   0.437   1.208   1.446
   72SOL     MW  288   0.432   1.134   1.497
   73SOL     OW  289   2.051   1.982   1.815
   73SOL    HW1  290   2.076   1.892   1.834
   73SOL    HW2  291   2.029   1.982   1.722
   73SOL     MW  292   2.050   1.975   1.809
   74SOL     OW  293   2.554   2.362   1.125
   74SOL    HW1  294   2.517   2.297   1.184
   74SOL    HW2  295   2.570   2.439   1.182
   74SOL     MW  296   2.553   2.363   1.135
   75SOL     OW  297   1.616   1.934   3.074
   75SOL    HW1  298   1.609   1.852   3.122
   75SOL    HW2  299   1.710   1.940   3.051
   75SOL     MW  300   1.624   1.928   3.075
   76SOL     OW  301   1.624   1.918   2.465
   76SOL    HW1  302   1.702   1.878   2.428
   76SOL    HW2  303   1.579   1.957   2.390
   76SOL     MW  304   1.626   1.917   2.455
   77SOL     OW  305   0.431   1.653   2.655
   77SOL    HW1  306   0.357   1.707   2.628
   77SOL    HW2  307   0.391   1.578   2.700
   77SOL     MW  308   0.421   1.651   2.657
   78SOL     OW  309   2.998   1.786   1.560
   78SOL    HW1  310   2.992   1.694   1.585
   78SOL    HW2  311   3.005   1.832   1.644
   78SOL     MW  312   2.999   1.782   1.570
   79SOL     OW  313   1.564   2.333   1.983
   79SOL    HW1  314   1.594   2.260   1.929
   79SOL    HW2  315   1.474   2.350   1.952
   79SOL     MW  316   1.558   2.328   1.976
   80SOL     OW  317   0.052   1.138   0.187
   80SOL    HW1  318   0.013   1.142   0.274
   80SOL    HW2  319  -0.019   1.103   0.131
   80SOL     MW  320   0.042   1.136   0.189
   81SOL     OW  321   0.465   2.117   0.549
   81SOL    HW1  322   0.380   2.152   0.574
   81SOL    HW2  323   0.524   2.194   0.548
   81SOL     MW  324   0.463   2.127   0.551
   82SOL     OW  325   1.901   1.869   0.751
   82SOL    HW1  326   1.996   1.868   0.743
   82SOL    HW2  327   1.874   1.777   0.737
   82SOL     MW  328   1.906   1.860   0.750
   83SOL     OW  329   0.869   1.419   1.757
   83SOL    HW1  330   0.922   1.498   1.753
   83SOL    HW2  331   0.853   1.405   1.851
   83SOL     MW  332   0.872   1.425   1.765
   84SOL     OW  333   2.230   0.364   1.860
   84SOL    HW1  334   2.227   0.447   1.907
   84SOL    HW2  335   2.297   0.376   1.793
   84SOL     MW  336   2.236   0.372   1.859
   85SOL     OW  337   2.599   2.779   1.992
   85SOL    HW1  338   2.684   2.775   1.951
   85SOL    HW2  339   2.593   2.869   2.026
   85SOL     MW  340   2.605   2.787   1.991
   86SOL     OW  341   2.684   2.740   1.549
   86SOL    HW1  342   2.624   2.736   1.623
   86SOL    HW2  343   2.716   2.831   1.549
   86SOL     MW  344   2.682   2.748   1.556
   87SOL     OW  345   1.703   0.953   2.023
   87SOL    HW1  346   1.796   0.960   2.000
   87SOL    HW2  347   1.689   1.022   2.088
   87SOL     MW  348   1.710   0.961   2.026
   88SOL     OW  349   0.994   2.463   1.264
   88SOL    HW1  350   0.918   2.518   1.246
   88SOL    HW2  351   1.065   2.526   1.283
   88SOL     MW  352   0.994   2.474   1.265
   89SOL     OW  353   2.551   1.761   2.119
   89SOL    HW1  354   2.598   1.824   2.173
   89SOL    HW2  355   2.498   1.815   2.060
   89SOL     MW  356   2.551   1.771   2.118
   90SOL     OW  357   2.078   1.083   1.675
   90SOL    HW1  358   2.089   1.025   1.749
   90SOL    HW2  359   1.985   1.076   1.653
   90SOL     MW  360   2.070   1.078   1.679
   91SOL     OW  361   2.412   2.890   2.962
   91SOL    HW1  362   2.350   2.912   3.032
   91SOL    HW2  363   2.390   2.951   2.891
   91SOL     MW  364   2.405   2.898   2.962
   92SOL     OW  365   1.534   2.765   0.838
   92SOL    HW1  366   1.592   2.813   0.896
   92SOL    HW2  367   1.454   2.818   0.834
   92SOL     MW  368   1.532   2.774   0.842
   93SOL     OW  369   2.898   0.319   2.319
   93SOL    HW1  370   2.843   0.280   2.252
   93SOL    HW2  371   2.983   0.276   2.308
   93SOL     MW  372   2.901   0.312   2.312
   94SOL     OW  373   2.838   1.923   2.903
   94SOL    HW1  374   2.754   1.948   2.866
   94SOL    HW2  375   2.815   1.876   2.984
   94SOL     MW  376   2.829   1.920   2.907
   95SOL     OW  377   2.125   0.341   2.491
   95SOL    HW1  378   2.176   0.367   2.415
   95SOL    HW2  379   2.074   0.419   2.515
   95SOL     MW  380   2.124   0.350   2.486
   96SOL     OW  381   3.081   1.222   0.506
   96SOL    HW1  382   3.080   1.273   0.587
   96SOL    HW2  383   3.075   1.287   0.436
   96SOL     MW  384   3.081   1.232   0.506
   97SOL     OW  385   1.900   1.451   1.135
   97SOL    HW1  386   1.926   1.542   1.148
   97SOL    HW2  387   1.838   1.433   1.207
   97SOL     MW  388   1.896   1.457   1.142
   98SOL     OW  389   1.078   0.861   0.804
   98SOL    HW1  390   0.990   0.898   0.809
   98SOL    HW2  391   1.136   0.937   0.793
   98SOL     MW  392   1.076   0.871   0.804
   99SOL     OW  393   2.622   2.167   0.998
   99SOL    HW1  394   2.562   2.220   0.945
   99SOL    HW2  395   2.564   2.117   1.056
   99SOL     MW  396   2.611   2.167   0.998
  100SOL     OW  397   2.136   0.123   2.521
  100SOL    HW1  398   2.169   0.040   2.553
  100SOL    HW2  399   2.122   0.109   2.427
  100SOL     MW  400   2.137   0.114   2.515
  101SOL     OW  401   0.241   2.446   2.606
  101SOL    HW1  402   0.154   2.485   2.603
  101SOL    HW2  403   0.269   2.455   2.698
  101SOL     MW  404   0.236   2.449   2.614
  102SOL     OW  405   2.205   0.642   2.377
  102SOL    HW1  406   2.175   0.714   2.322
  102SOL    HW2  407   2.132   0.579   2.375
  102SOL     MW  408   2.196   0.642   2.372
  103SOL     OW  409   1.453   0.866   0.602
  103SOL    HW1  410   1.366   0.832   0.584
  103SOL    HW2  411   1.490   0.806   0.668
  103SOL     MW  412   1.449   0.857   0.606
  104SOL     OW  413   2.969   3.021   2.120
  104SOL    HW1  414   2.929   3.041   2.204
  104SOL    HW2  415   3.054   3.064   2.123
  104SOL     MW  416   2.973   3.026   2.128
  105SOL     OW  417   3.080   3.069   2.392
  105SOL    HW1  418   3.081   3.140   2.328
  105SOL    HW2  419   3.029   3.104   2.466
  105SOL     MW  420   3.075   3.078   2.393
  106SOL     OW  421   2.920   1.383   0.718
  106SOL    HW1  422   2.831   1.358   0.740
  106SOL    HW2  423   2.911   1.435   0.637
  106SOL     MW  424   2.911   1.386   0.712
  107SOL     OW  425   1.760   2.125   1.725
  107SOL    HW1  426   1.760   2.031   1.743
  107SOL    HW2  427   1.669   2.152   1.735
  107SOL     MW  428   1.752   2.119   1.728
  108SOL     OW  429   2.812   2.285   1.049
  108SOL    HW1  430   2.760   2.285   1.129
  108SOL    HW2  431   2.815   2.377   1.022
  108SOL     MW  432   2.808   2.293   1.054
  109SOL     OW  433   0.577   0.811   2.791
  109SOL    HW1  434   0.666   0.776   2.786
  109SOL    HW2  435   0.581   0.893   2.741
  109SOL     MW  436   0.585   0.815   2.785
  110SOL     OW  437   0.616   2.598   0.652
  110SOL    HW1  438   0.537   2.625   0.606
  110SOL    HW2  439   0.636   2.672   0.711
  110SOL     MW  440   0.610   2.607   0.654
  111SOL     OW  441   1.719   2.131   1.438
  111SOL    HW1  442   1.662   2.066   1.398
  111SOL    HW2  443   1.765   2.083   1.508
  111SOL     MW  444   1.719   2.121   1.440
  112SOL     OW  445   2.646   0.387   2.078
  112SOL    HW1  446   2.727   0.338   2.074
  112SOL    HW2  447   2.623   0.406   1.986
  112SOL     MW  448   2.650   0.384   2.069
  113SOL     OW  449   0.957   0.371   0.498
  113SOL    HW1  450   1.032   0.402   0.549
  113SOL    HW2  451   0.996   0.320   0.426
  113SOL     MW  452   0.967   0.369   0.496
  114SOL     OW  453   0.338   2.360   0.407
  114SOL    HW1  454   0.263   2.312   0.441
  114SOL    HW2  455   0.405   2.292   0.392
  114SOL     MW  456   0.337   2.350   0.408
  115SOL     OW  457   2.358   1.274   0.393
  115SOL    HW1  458   2.380   1.366   0.406
  115SOL    HW2  459   2.299   1.273   0.317
  115SOL     MW  460   2.355   1.281   0.387
  116SOL     OW  461   2.384   0.301   2.137
  116SOL    HW1  462   2.365   0.237   2.068
  116SOL    HW2  463   2.474   0.280   2.165
  116SOL     MW  464   2.391   0.294   2.133
  117SOL     OW  465   1.888   0.333   0.877
  117SOL    HW1  466   1.956   0.400   0.867
  117SOL    HW2  467   1.935   0.250   0.868
  117SOL     MW  468   1.898   0.332   0.876
  118SOL     OW  469   0.739   2.293   0.945
  118SOL    HW1  470   0.652   2.261   0.967
  118SOL    HW2  471   0.796   2.260   1.016
  118SOL     MW  472   0.737   2.287   0.953
  119SOL     OW  473   1.002   1.133   2.297
  119SOL    HW1  474   1.030   1.053   2.340
  119SOL    HW2  475   0.928   1.106   2.241
  119SOL     MW  476   0.997   1.124   2.296
  120SOL     OW  477   0.210   0.578   1.987
  120SOL    HW1  478   0.268   0.653   1.978
  120SOL    HW2  479   0.123   0.617   2.003
  120SOL     MW  480   0.207   0.588   1.987
  121SOL     OW  481  -0.004   0.546   2.936
  121SOL    HW1  482  -0.016   0.514   3.025
  121SOL    HW2  483  -0.016   0.468   2.881
  121SOL     MW  484  -0.007   0.536   2.939
  122SOL     OW  485   1.104   3.041   1.560
  122SOL    HW1  486   1.052   3.120   1.572
  122SOL    HW2  487   1.040   2.970   1.559
  122SOL     MW  488   1.094   3.042   1.560
  123SOL     OW  489   1.819   2.415   1.773
  123SOL    HW1  490   1.838   2.463   1.693
  123SOL    HW2  491   1.800   2.484   1.838
  123SOL     MW  492   1.818   2.426   1.772
  124SOL     OW  493   1.371   1.482   1.830
  124SOL    HW1  494   1.308   1.506   1.763
  124SOL    HW2  495   1.378   1.386   1.824
  124SOL     MW  496   1.367   1.476   1.824
  125SOL     OW  497   2.587   0.506   3.122
  125SOL    HW1  498   2.566   0.597   3.103
  125SOL    HW2  499   2.683   0.501   3.118
  125SOL     MW  500   2.594   0.513   3.121
  126SOL     OW  501   0.978   0.316   2.482
  126SOL    HW1  502   1.059   0.267   2.485
  126SOL    HW2  503   0.994   0.386   2.418
  126SOL     MW  504   0.986   0.318   2.476
  127SOL     OW  505   1.635   1.525   1.179
  127SOL    HW1  506   1.643   1.541   1.272
  127SOL    HW2  507   1.671   1.604   1.137
  127SOL     MW  508   1.640   1.533   1.183
  128SOL     OW  509   0.560   1.676   2.429
  128SOL    HW1  510   0.599   1.672   2.515
  128SOL    HW2  511   0.633   1.695   2.369
  128SOL     MW  512   0.570   1.676   2.431
  129SOL     OW  513   2.496   0.569   2.682
  129SOL    HW1  514   2.555   0.574   2.608
  129SOL    HW2  515   2.548   0.530   2.753
  129SOL     MW  516   2.506   0.566   2.682
  130SOL     OW  517   1.105   0.173   2.924
  130SOL    HW1  518   1.183   0.221   2.954
  130SOL    HW2  519   1.126   0.147   2.834
  130SOL     MW  520   1.114   0.174   2.919
  131SOL     OW  521   3.037   2.799   2.743
  131SOL    HW1  522   3.081   2.856   2.681
  131SOL    HW2  523   2.979   2.744   2.690
  131SOL     MW  524   3.036   2.799   2.733
  132SOL     OW  525   1.813   1.588   2.722
  132SOL    HW1  526   1.780   1.513   2.673
  132SOL    HW2  527   1.879   1.627   2.665
  132SOL     MW  528   1.815   1.585   2.712
  133SOL     OW  529   0.636   2.305   0.196
  133SOL    HW1  530   0.656   2.320   0.104
  133SOL    HW2  531   0.718   2.269   0.233
  133SOL     MW  532   0.645   2.304   0.192
  134SOL     OW  533   2.705   2.521   1.577
  134SOL    HW1  534   2.774   2.475   1.530
  134SOL    HW2  535   2.668   2.456   1.637
  134SOL     MW  536   2.708   2.512   1.578
  135SOL     OW  537   1.351   1.600   2.761
  135SOL    HW1  538   1.419   1.631   2.819
  135SOL    HW2  539   1.284   1.562   2.819
  135SOL     MW  540   1.350   1.599   2.771
  136SOL     OW  541   0.057   2.012   2.472
  136SOL    HW1  542   0.133   1.954   2.473
  136SOL    HW2  543  -0.019   1.953   2.478
  136SOL     MW  544   0.057   2.002   2.474
  137SOL     OW  545   3.081   1.962   1.118
  137SOL    HW1  546   2.999   2.007   1.136
  137SOL    HW2  547   3.081   1.887   1.179
  137SOL     MW  548   3.074   1.959   1.125
  138SOL     OW  549   1.567   0.519   1.487
  138SOL    HW1  550   1.620   0.514   1.566
  138SOL    HW2  551   1.550   0.427   1.464
  138SOL     MW  552   1.569   0.510   1.492
  139SOL     OW  553   0.084   2.695   2.415
  139SOL    HW1  554   0.036   2.617   2.440
  139SOL    HW2  555   0.019   2.751   2.372
  139SOL     MW  556   0.074   2.693   2.414
  140SOL     OW  557   1.264   2.706   2.070
  140SOL    HW1  558   1.224   2.775   2.123
  140SOL    HW2  559   1.344   2.746   2.035
  140SOL     MW  560   1.268   2.716   2.072
  141SOL     OW  561   1.907   0.287   0.395
  141SOL    HW1  562   1.813   0.299   0.386
  141SOL    HW2  563   1.923   0.198   0.362
  141SOL     MW  564   1.900   0.280   0.391
  142SOL     OW  565   2.368   2.026   0.210
  142SOL    HW1  566   2.435   2.079   0.167
  142SOL    HW2  567   2.335   2.082   0.282
  142SOL     MW  568   2.370   2.036   0.212
  143SOL     OW  569   1.898   2.133   0.812
  143SOL    HW1  570   1.968   2.085   0.770
  143SOL    HW2  571   1.942   2.187   0.878
  143SOL     MW  572   1.908   2.134   0.814
  144SOL     OW  573   1.202   2.984   2.575
  144SOL    HW1  574   1.159   2.900   2.568
  144SOL    HW2  575   1.215   2.997   2.670
  144SOL     MW  576   1.200   2.978   2.583
  145SOL     OW  577   0.859   2.012   1.900
  145SOL    HW1  578   0.889   1.940   1.956
  145SOL    HW2  579   0.830   1.969   1.819
  145SOL     MW  580   0.858   2.002   1.898
  146SOL     OW  581   2.305   2.586   1.891
  146SOL    HW1  582   2.239   2.592   1.960
  146SOL    HW2  583   2.333   2.494   1.891
  146SOL     MW  584   2.301   2.578   1.897
  147SOL     OW  585   0.425   3.049   0.551
  147SOL    HW1  586   0.506   2.999   0.554
  147SOL    HW2  587   0.358   2.989   0.586
  147SOL     MW  588   0.426   3.039   0.555
  148SOL     OW  589   0.947   1.619   2.477
  148SOL    HW1  590   0.941   1.714   2.490
  148SOL    HW2  591   0.923   1.582   2.563
  148SOL     MW  592   0.944   1.624   2.486
  149SOL     OW  593   1.675   0.125   2.197
  149SOL    HW1  594   1.627   0.208   2.194
  149SOL    HW2  595   1.710   0.120   2.286
  149SOL     MW  596   1.674   0.132   2.205
  150SOL     OW  597   1.120   0.645   2.887
  150SOL    HW1  598   1.162   0.560   2.902
  150SOL    HW2  599   1.036   0.624   2.846
  150SOL     MW  600   1.115   0.636   2.885
  151SOL     OW  601   2.216   0.489   0.760
  151SOL    HW1  602   2.142   0.506   0.817
  151SOL    HW2  603   2.241   0.576   0.726
  151SOL     MW  604   2.213   0.499   0.762
  152SOL     OW  605   0.314   2.687   1.280
  152SOL    HW1  606   0.233   2.682   1.230
  152SOL    HW2  607   0.308   2.616   1.344
  152SOL     MW  608   0.307   2.680   1.281
  153SOL     OW  609   0.474   1.158   3.006
  153SOL    HW1  610   0.525   1.198   2.936
  153SOL    HW2  611   0.406   1.222   3.026
  153SOL     MW  612   0.472   1.167   3.001
  154SOL     OW  613   1.707   2.036   0.674
  154SOL    HW1  614   1.729   1.988   0.595
  154SOL    HW2  615   1.689   2.125   0.644
  154SOL     MW  616   1.707   2.039   0.665
  155SOL     OW  617   0.795   2.133   2.786
  155SOL    HW1  618   0.859   2.204   2.783
  155SOL    HW2  619   0.831   2.065   2.727
  155SOL     MW  620   0.804   2.132   2.781
  156SOL     OW  621   0.174   1.863   0.996
  156SOL    HW1  622   0.241   1.840   0.932
  156SOL    HW2  623   0.213   1.935   1.047
  156SOL     MW  624   0.183   1.868   0.995
  157SOL     OW  625   2.615   1.980   0.245
  157SOL    HW1  626   2.703   1.949   0.225
  157SOL    HW2  627   2.627   2.071   0.275
  157SOL     MW  628   2.623   1.986   0.245
  158SOL     OW  629   2.955   1.410   2.245
  158SOL    HW1  630   3.043   1.429   2.277
  158SOL    HW2  631   2.912   1.365   2.318
  158SOL     MW  632   2.959   1.408   2.255
  159SOL     OW  633   1.270   2.383   1.442
  159SOL    HW1  634   1.211   2.325   1.395
  159SOL    HW2  635   1.285   2.457   1.381
  159SOL     MW  636   1.266   2.385   1.433
  160SOL     OW  637   0.930   2.467   3.049
  160SOL    HW1  638   0.926   2.527   3.123
  160SOL    HW2  639   0.989   2.396   3.079
  160SOL     MW  640   0.935   2.466   3.058
  161SOL     OW  641   0.262   0.993   2.656
  161SOL    HW1  642   0.339   0.937   2.662
  161SOL    HW2  643   0.206   0.950   2.590
  161SOL     MW  644   0.263   0.984   2.651
  162SOL     OW  645   1.927   0.982   0.846
  162SOL    HW1  646   1.876   1.024   0.915
  162SOL    HW2  647   1.917   0.888   0.862
  162SOL     MW  648   1.922   0.977   0.853
  163SOL     OW  649   1.439   1.504   2.440
  163SOL    HW1  650   1.466   1.416   2.464
  163SOL    HW2  651   1.357   1.491   2.391
  163SOL     MW  652   1.433   1.495   2.438
  164SOL     OW  653   0.640   2.662   2.266
  164SOL    HW1  654   0.725   2.660   2.222
  164SOL    HW2  655   0.654   2.716   2.344
  164SOL     MW  656   0.649   2.667   2.269
  165SOL     OW  657   1.327   0.497   0.101
  165SOL    HW1  658   1.361   0.491   0.190
  165SOL    HW2  659   1.313   0.591   0.087
  165SOL     MW  660   1.329   0.505   0.107
  166SOL     OW  661   0.372   2.265   2.316
  166SOL    HW1  662   0.375   2.360   2.305
  166SOL    HW2  663   0.358   2.253   2.411
  166SOL     MW  664   0.370   2.272   2.324
  167SOL     OW  665   2.958   2.259   2.968
  167SOL    HW1  666   2.943   2.293   2.880
  167SOL    HW2  667   2.950   2.337   3.025
  167SOL     MW  668   2.956   2.269   2.966
  168SOL     OW  669   0.932   2.618   2.493
  168SOL    HW1  670   0.939   2.634   2.400
  168SOL    HW2  671   1.022   2.619   2.525
  168SOL     MW  672   0.940   2.621   2.488
  169SOL     OW  673   1.914   2.325   0.391
  169SOL    HW1  674   1.917   2.413   0.429
  169SOL    HW2  675   1.952   2.336   0.303
  169SOL     MW  676   1.918   2.334   0.387
  170SOL     OW  677   2.798   0.833   0.459
  170SOL    HW1  678   2.862   0.887   0.413
  170SOL    HW2  679   2.817   0.744   0.430
  170SOL     MW  680   2.806   0.830   0.453
  171SOL     OW  681   2.972   1.414   3.014
  171SOL    HW1  682   2.953   1.344   3.076
  171SOL    HW2  683   2.888   1.460   3.003
  171SOL     MW  684   2.963   1.413   3.019
  172SOL     OW  685   2.396   0.934   1.703
  172SOL    HW1  686   2.307   0.931   1.736
  172SOL    HW2  687   2.419   1.028   1.701
  172SOL     MW  688   2.391   0.942   1.706
  173SOL     OW  689   1.313   1.527   1.002
  173SOL    HW1  690   1.288   1.614   1.032
  173SOL    HW2  691   1.229   1.481   0.989
  173SOL     MW  692   1.303   1.530   1.003
  174SOL     OW  693   0.444   0.068   0.293
  174SOL    HW1  694   0.383   0.039   0.361
  174SOL    HW2  695   0.388   0.111   0.227
  174SOL     MW  696   0.434   0.070   0.293
  175SOL     OW  697   2.155   3.093   3.005
  175SOL    HW1  698   2.105   3.096   3.086
  175SOL    HW2  699   2.237   3.140   3.025
  175SOL     MW  700   2.159   3.097   3.014
  176SOL     OW  701   2.547   2.027   0.511
  176SOL    HW1  702   2.478   2.066   0.459
  176SOL    HW2  703   2.511   1.943   0.542
  176SOL     MW  704   2.538   2.022   0.509
  177SOL     OW  705   1.676   2.310   0.360
  177SOL    HW1  706   1.583   2.317   0.338
  177SOL    HW2  707   1.714   2.394   0.330
  177SOL     MW  708   1.671   2.319   0.356
  178SOL     OW  709   1.388   1.126   0.504
  178SOL    HW1  710   1.300   1.090   0.494
  178SOL    HW2  711   1.421   1.083   0.584
  178SOL     MW  712   1.383   1.118   0.510
  179SOL     OW  713   2.950   0.243   2.656
  179SOL    HW1  714   2.946   0.158   2.698
  179SOL    HW2  715   2.884   0.239   2.586
  179SOL     MW  716   2.943   0.236   2.654
  180SOL     OW  717   0.987   2.058   2.969
  180SOL    HW1  718   1.003   2.152   2.972
  180SOL    HW2  719   1.041   2.027   2.897
  180SOL     MW  720   0.993   2.063   2.964
  181SOL     OW  721   1.019   3.036   1.836
  181SOL    HW1  722   0.935   3.079   1.819
  181SOL    HW2  723   1.071   3.102   1.882
  181SOL     MW  724   1.016   3.045   1.839
  182SOL     OW  725   0.321   1.643   1.225
  182SOL    HW1  726   0.237   1.640   1.180
  182SOL    HW2  727   0.314   1.576   1.294
  182SOL     MW  728   0.313   1.636   1.227
  183SOL     OW  729   1.071   1.928   0.035
  183SOL    HW1  730   1.163   1.909   0.022
  183SOL    HW2  731   1.039   1.856   0.091
  183SOL     MW  732   1.076   1.920   0.039
  184SOL     OW  733   3.023   2.442   1.916
  184SOL    HW1  734   2.956   2.407   1.857
  184SOL    HW2  735   3.069   2.507   1.863
  184SOL     MW  736   3.021   2.445   1.906
  185SOL     OW  737   2.752   2.145   0.460
  185SOL    HW1  738   2.782   2.060   0.430
  185SOL    HW2  739   2.771   2.204   0.386
  185SOL     MW  740   2.756   2.143   0.450
  186SOL     OW  741   2.660   0.588   1.625
  186SOL    HW1  742   2.747   0.556   1.647
  186SOL    HW2  743   2.664   0.683   1.640
  186SOL     MW  744   2.668   0.594   1.627
  187SOL     OW  745   0.076   1.543   1.876
  187SOL    HW1  746  -0.019   1.534   1.866
  187SOL    HW2  747   0.112   1.485   1.808
  187SOL     MW  748   0.071   1.537   1.868
  188SOL     OW  749   1.992   1.410   0.798
  188SOL    HW1  750   1.940   1.358   0.736
  188SOL    HW2  751   2.040   1.344   0.849
  188SOL     MW  752   1.992   1.399   0.797
  189SOL     OW  753   0.557   1.031   1.001
  189SOL    HW1  754   0.548   0.953   0.947
  189SOL    HW2  755   0.577   1.102   0.940
  189SOL     MW  756   0.557   1.031   0.991
  190SOL     OW  757   2.435   2.821   2.317
  190SOL    HW1  758   2.457   2.808   2.225
  190SOL    HW2  759   2.455   2.737   2.359
  190SOL     MW  760   2.439   2.813   2.313
  191SOL     OW  761   1.989   2.598   0.524
  191SOL    HW1  762   2.060   2.642   0.571
  191SOL    HW2  763   1.984   2.643   0.439
  191SOL     MW  764   1.995   2.605   0.520
  192SOL     OW  765   2.477   1.196   0.596
  192SOL    HW1  766   2.499   1.143   0.521
  192SOL    HW2  767   2.425   1.138   0.653
  192SOL     MW  768   2.474   1.186   0.595
  193SOL     OW  769   0.560   2.044   1.411
  193SOL    HW1  770   0.532   2.046   1.320
  193SOL    HW2  771   0.608   2.127   1.424
  193SOL     MW  772   0.561   2.052   1.404
  194SOL     OW  773   1.940   0.246   0.139
  194SOL    HW1  774   2.021   0.294   0.158
  194SOL    HW2  775   1.928   0.255   0.044
  194SOL     MW  776   1.946   0.250   0.132
  195SOL     OW  777   1.934   2.237   1.969
  195SOL    HW1  778   1.878   2.164   1.942
  195SOL    HW2  779   1.874   2.300   2.010
  195SOL     MW  780   1.924   2.236   1.971
  196SOL     OW  781   2.096   2.548   0.979
  196SOL    HW1  782   2.061   2.618   0.925
  196SOL    HW2  783   2.059   2.564   1.066
  196SOL     MW  784   2.089   2.555   0.982
  197SOL     OW  785   3.023   2.720   2.425
  197SOL    HW1  786   3.075   2.784   2.473
  197SOL    HW2  787   3.081   2.689   2.354
  197SOL     MW  788   3.033   2.722   2.423
  198SOL     OW  789   2.394   1.089   2.572
  198SOL    HW1  790   2.377   1.134   2.490
  198SOL    HW2  791   2.333   1.015   2.573
  198SOL     MW  792   2.388   1.086   2.565
  199SOL     OW  793   1.283   0.739   1.538
  199SOL    HW1  794   1.273   0.748   1.632
  199SOL    HW2  795   1.234   0.813   1.501
  199SOL     MW  796   1.278   0.747   1.542
  200SOL     OW  797   1.217   2.556   2.652
  200SOL    HW1  798   1.272   2.511   2.715
  200SOL    HW2  799   1.184   2.487   2.594
  200SOL     MW  800   1.218   2.546   2.652
  201SOL     OW  801   2.197   1.033   2.837
  201SOL    HW1  802   2.269   1.094   2.853
  201SOL    HW2  803   2.227   0.980   2.762
  201SOL     MW  804   2.206   1.033   2.832
  202SOL     OW  805   1.028   0.313   2.029
  202SOL    HW1  806   1.015   0.398   1.987
  202SOL    HW2  807   1.089   0.332   2.101
  202SOL     MW  808   1.032   0.322   2.032
  203SOL     OW  809   1.283   1.923   1.443
  203SOL    HW1  810   1.338   1.849   1.469
  203SOL    HW2  811   1.226   1.887   1.374
  203SOL     MW  812   1.282   1.913   1.439
  204SOL     OW  813   2.786   0.351   0.539
  204SOL    HW1  814   2.722   0.408   0.579
  204SOL    HW2  815   2.866   0.403   0.534
  204SOL     MW  816   2.788   0.360   0.542
  205SOL     OW  817   1.707   0.937   0.633
  205SOL    HW1  818   1.673   0.924   0.721
  205SOL    HW2  819   1.688   0.855   0.587
  205SOL     MW  820   1.702   0.929   0.636
  206SOL     OW  821   1.902   0.748   1.059
  206SOL    HW1  822   1.876   0.830   1.101
  206SOL    HW2  823   1.956   0.703   1.126
  206SOL     MW  824   1.904   0.751   1.069
  207SOL     OW  825   0.705   2.819   1.621
  207SOL    HW1  826   0.757   2.861   1.554
  207SOL    HW2  827   0.763   2.815   1.698
  207SOL     MW  828   0.714   2.823   1.623
  208SOL     OW  829   0.468   2.431   0.084
  208SOL    HW1  830   0.435   2.520   0.068
  208SOL    HW2  831   0.405   2.393   0.146
  208SOL     MW  832   0.459   2.435   0.087
  209SOL     OW  833   1.705   0.152   1.417
  209SOL    HW1  834   1.615   0.177   1.396
  209SOL    HW2  835   1.756   0.181   1.341
  209SOL     MW  836   1.702   0.157   1.409
  210SOL     OW  837   1.278   2.035   1.677
  210SOL    HW1  838   1.332   2.064   1.604
  210SOL    HW2  839   1.298   1.942   1.688
  210SOL     MW  840   1.285   2.029   1.672
  211SOL     OW  841   1.573   0.263   0.396
  211SOL    HW1  842   1.621   0.185   0.371
  211SOL    HW2  843   1.523   0.236   0.474
  211SOL     MW  844   1.573   0.254   0.402
  212SOL     OW  845   2.583   1.731   0.339
  212SOL    HW1  846   2.597   1.812   0.387
  212SOL    HW2  847   2.662   1.721   0.285
  212SOL     MW  848   2.592   1.737   0.338
  213SOL     OW  849   2.606   0.159   2.037
  213SOL    HW1  850   2.553   0.090   1.997
  213SOL    HW2  851   2.636   0.121   2.120
  213SOL     MW  852   2.605   0.149   2.041
  214SOL     OW  853   2.289   2.619   1.346
  214SOL    HW1  854   2.352   2.614   1.418
  214SOL    HW2  855   2.341   2.600   1.267
  214SOL     MW  856   2.299   2.616   1.345
  215SOL     OW  857   0.845   2.831   2.612
  215SOL    HW1  858   0.856   2.747   2.655
  215SOL    HW2  859   0.935   2.858   2.588
  215SOL     MW  860   0.854   2.826   2.613
  216SOL     OW  861   0.318   1.823   0.287
  216SOL    HW1  862   0.269   1.903   0.270
  216SOL    HW2  863   0.333   1.822   0.382
  216SOL     MW  864   0.315   1.829   0.294
  217SOL     OW  865   0.183   3.140   2.512
  217SOL    HW1  866   0.271   3.109   2.492
  217SOL    HW2  867   0.166   3.109   2.601
  217SOL     MW  868   0.189   3.135   2.518
  218SOL     OW  869   0.869   0.849   0.189
  218SOL    HW1  870   0.925   0.785   0.232
  218SOL    HW2  871   0.927   0.924   0.172
  218SOL     MW  872   0.880   0.850   0.190
  219SOL     OW  873   2.543   1.504   0.333
  219SOL    HW1  874   2.631   1.518   0.366
  219SOL    HW2  875   2.555   1.457   0.250
  219SOL     MW  876   2.551   1.501   0.329
  220SOL     OW  877   0.225   0.405   0.300
  220SOL    HW1  878   0.164   0.378   0.232
  220SOL    HW2  879   0.307   0.360   0.277
  220SOL     MW  880   0.228   0.399   0.292
  221SOL     OW  881   0.798   0.436   1.966
  221SOL    HW1  882   0.805   0.412   2.058
  221SOL    HW2  883   0.763   0.525   1.966
  221SOL     MW  884   0.796   0.442   1.974
  222SOL     OW  885   1.962   2.025   0.145
  222SOL    HW1  886   1.934   2.108   0.182
  222SOL    HW2  887   2.028   2.049   0.079
  222SOL     MW  888   1.966   2.034   0.143
  223SOL     OW  889   1.922   0.550   1.641
  223SOL    HW1  890   1.932   0.549   1.546
  223SOL    HW2  891   1.843   0.498   1.657
  223SOL     MW  892   1.916   0.544   1.634
  224SOL     OW  893   0.065   0.239   3.023
  224SOL    HW1  894   0.018   0.259   2.942
  224SOL    HW2  895   0.093   0.325   3.056
  224SOL     MW  896   0.063   0.249   3.019
  225SOL     OW  897   1.910   2.307   1.539
  225SOL    HW1  898   1.815   2.304   1.541
  225SOL    HW2  899   1.938   2.252   1.614
  225SOL     MW  900   1.905   2.301   1.546
  226SOL     OW  901   1.371   2.376   0.335
  226SOL    HW1  902   1.287   2.342   0.306
  226SOL    HW2  903   1.382   2.342   0.424
  226SOL     MW  904   1.365   2.369   0.340
  227SOL     OW  905   2.470   2.711   2.627
  227SOL    HW1  906   2.431   2.779   2.574
  227SOL    HW2  907   2.541   2.675   2.573
  227SOL     MW  908   2.474   2.714   2.618
  228SOL     OW  909   0.014   1.408   0.268
  228SOL    HW1  910   0.085   1.349   0.246
  228SOL    HW2  911   0.047   1.458   0.343
  228SOL     MW  912   0.023   1.408   0.273
  229SOL     OW  913   3.021   1.657   1.840
  229SOL    HW1  914   3.077   1.619   1.773
  229SOL    HW2  915   3.082   1.689   1.908
  229SOL     MW  916   3.031   1.658   1.840
  230SOL     OW  917   2.877   2.084   0.233
  230SOL    HW1  918   2.938   2.155   0.251
  230SOL    HW2  919   2.920   2.032   0.164
  230SOL     MW  920   2.886   2.085   0.228
  231SOL     OW  921   0.577   0.445   2.727
  231SOL    HW1  922   0.648   0.441   2.663
  231SOL    HW2  923   0.542   0.356   2.730
  231SOL     MW  924   0.581   0.437   2.722
  232SOL     OW  925   1.912   0.615   2.418
  232SOL    HW1  926   1.960   0.688   2.457
  232SOL    HW2  927   1.851   0.657   2.355
  232SOL     MW  928   1.911   0.625   2.415
  233SOL     OW  929   1.714   2.350   0.623
  233SOL    HW1  930   1.771   2.310   0.558
  233SOL    HW2  931   1.769   2.361   0.701
  233SOL     MW  932   1.724   2.348   0.624
  234SOL     OW  933   1.002   1.632   0.764
  234SOL    HW1  934   1.054   1.712   0.758
  234SOL    HW2  935   0.986   1.620   0.858
  234SOL     MW  936   1.005   1.638   0.772
  235SOL     OW  937   2.381   1.469   0.808
  235SOL    HW1  938   2.323   1.491   0.735
  235SOL    HW2  939   2.321   1.446   0.880
  235SOL     MW  940   2.371   1.468   0.808
  236SOL     OW  941   2.383   1.544   0.108
  236SOL    HW1  942   2.433   1.612   0.153
  236SOL    HW2  943   2.443   1.512   0.039
  236SOL     MW  944   2.393   1.546   0.106
  237SOL     OW  945   0.507   1.570   0.936
  237SOL    HW1  946   0.488   1.476   0.940
  237SOL    HW2  947   0.474   1.597   0.849
  237SOL     MW  948   0.502   1.564   0.928
  238SOL     OW  949   1.475   1.563   0.070
  238SOL    HW1  950   1.453   1.643   0.022
  238SOL    HW2  951   1.407   1.556   0.138
  238SOL     MW  952   1.466   1.569   0.071
  239SOL     OW  953   0.579   2.604   3.027
  239SOL    HW1  954   0.487   2.582   3.016
  239SOL    HW2  955   0.590   2.615   3.122
  239SOL     MW  956   0.572   2.603   3.034
  240SOL     OW  957   0.974   2.200   0.678
  240SOL    HW1  958   1.041   2.133   0.667
  240SOL    HW2  959   0.891   2.152   0.675
  240SOL     MW  960   0.973   2.190   0.677
  241SOL     OW  961   0.661   1.595   1.865
  241SOL    HW1  962   0.671   1.608   1.771
  241SOL    HW2  963   0.572   1.558   1.875
  241SOL     MW  964   0.654   1.592   1.858
  242SOL     OW  965   1.480   2.040   1.902
  242SOL    HW1  966   1.393   2.032   1.864
  242SOL    HW2  967   1.488   1.965   1.962
  242SOL     MW  968   1.474   2.032   1.904
  243SOL     OW  969   1.274   0.292   0.908
  243SOL    HW1  970   1.303   0.262   0.994
  243SOL    HW2  971   1.355   0.297   0.856
  243SOL     MW  972   1.284   0.289   0.911
  244SOL     OW  973   2.923   1.581   2.406
  244SOL    HW1  974   2.883   1.649   2.459
  244SOL    HW2  975   2.975   1.628   2.340
  244SOL     MW  976   2.925   1.591   2.405
  245SOL     OW  977   1.500   1.378   1.307
  245SOL    HW1  978   1.498   1.394   1.401
  245SOL    HW2  979   1.407   1.375   1.281
  245SOL     MW  980   1.491   1.380   1.313
  246SOL     OW  981   1.272   1.767   0.203
  246SOL    HW1  982   1.226   1.848   0.224
  246SOL    HW2  983   1.327   1.789   0.128
  246SOL     MW  984   1.274   1.776   0.199
  247SOL     OW  985   1.497   2.367   0.660
  247SOL    HW1  986   1.507   2.458   0.631
  247SOL    HW2  987   1.404   2.348   0.647
  247SOL     MW  988   1.490   2.373   0.656
  248SOL     OW  989   1.557   0.215   0.899
  248SOL    HW1  990   1.644   0.249   0.918
  248SOL    HW2  991   1.553   0.210   0.803
  248SOL     MW  992   1.564   0.217   0.892
  249SOL     OW  993   0.253   1.614   0.132
  249SOL    HW1  994   0.168   1.571   0.137
  249SOL    HW2  995   0.286   1.615   0.223
  249SOL     MW  996   0.249   1.610   0.141
  250SOL     OW  997   1.275   3.104   1.800
  250SOL    HW1  998   1.313   3.037   1.745
  250SOL    HW2  999   1.343   3.123   1.866
  250SOL     MW 1000   1.285   3.101   1.801
  251SOL     OW 1001   3.015   1.796   2.875
  251SOL    HW1 1002   3.081   1.827   2.936
  251SOL    HW2 1003   3.064   1.764   2.799
  251SOL     MW 1004   3.025   1.795   2.873
  252SOL     OW 1005   0.147   2.130   2.083
  252SOL    HW1 1006   0.125   2.083   2.163
  252SOL    HW2 1007   0.071   2.188   2.067
  252SOL     MW 1008   0.138   2.132   2.089
  253SOL     OW 1009   2.580   3.140   1.552
  253SOL    HW1 1010   2.617   3.093   1.477
  253SOL    HW2 1011   2.642   3.124   1.624
  253SOL     MW 1012   2.589   3.135   1.552
  254SOL     OW 1013   2.441   2.621   2.087
  254SOL    HW1 1014   2.471   2.595   2.174
  254SOL    HW2 1015   2.491   2.565   2.027
  254SOL     MW 1016   2.448   2.613   2.089
  255SOL     OW 1017   0.683   1.091   0.506
  255SOL    HW1 1018   0.621   1.139   0.562
  255SOL    HW2 1019   0.728   1.160   0.456
  255SOL     MW 1020   0.682   1.102   0.507
  256SOL     OW 1021   0.490   1.324   2.381
  256SOL    HW1 1022   0.553   1.268   2.424
  256SOL    HW2 1023   0.458   1.272   2.307
  256SOL     MW 1024   0.492   1.315   2.379
  257SOL     OW 1025   0.569   2.097   2.470
  257SOL    HW1 1026   0.562   2.003   2.459
  257SOL    HW2 1027   0.562   2.133   2.381
  257SOL     MW 1028   0.567   2.093   2.461
  258SOL     OW 1029   2.082   0.875   1.253
  258SOL    HW1 1030   2.023   0.942   1.221
  258SOL    HW2 1031   2.026   0.815   1.304
  258SOL     MW 1032   2.072   0.875   1.254
  259SOL     OW 1033   2.894   2.128   1.322
  259SOL    HW1 1034   2.952   2.154   1.393
  259SOL    HW2 1035   2.921   2.181   1.247
  259SOL     MW 1036   2.902   2.134   1.321
  260SOL     OW 1037   0.369   2.113   1.701
  260SOL    HW1 1038   0.407   2.156   1.625
  260SOL    HW2 1039   0.430   2.041   1.721
  260SOL     MW 1040   0.378   2.111   1.696
  261SOL     OW 1041   0.542   2.594   1.929
  261SOL    HW1 1042   0.608   2.622   1.992
  261SOL    HW2 1043   0.472   2.554   1.981
  261SOL     MW 1044   0.541   2.593   1.939
  262SOL     OW 1045   1.530   1.444   1.003
  262SOL    HW1 1046   1.590   1.376   0.973
  262SOL    HW2 1047   1.480   1.404   1.075
  262SOL     MW 1048   1.531   1.435   1.007
  263SOL     OW 1049   0.597   3.103   0.853
  263SOL    HW1 1050   0.571   3.033   0.793
  263SOL    HW2 1051   0.689   3.122   0.829
  263SOL     MW 1052   0.603   3.099   0.845
  264SOL     OW 1053   1.589   2.363   2.712
  264SOL    HW1 1054   1.581   2.344   2.806
  264SOL    HW2 1055   1.684   2.365   2.696
  264SOL     MW 1056   1.597   2.361   2.719
  265SOL     OW 1057   2.893   0.101   1.089
  265SOL    HW1 1058   2.884   0.192   1.118
  265SOL    HW2 1059   2.838   0.051   1.150
  265SOL     MW 1060   2.887   0.105   1.097
  266SOL     OW 1061   2.638   2.347   1.370
  266SOL    HW1 1062   2.622   2.253   1.374
  266SOL    HW2 1063   2.728   2.354   1.336
  266SOL     MW 1064   2.645   2.339   1.367
  267SOL     OW 1065   1.245   2.068   2.735
  267SOL    HW1 1066   1.196   2.138   2.778
  267SOL    HW2 1067   1.311   2.114   2.683
  267SOL     MW 1068   1.247   2.078   2.735
  268SOL     OW 1069   0.939   0.259   1.371
  268SOL    HW1 1070   0.970   0.264   1.461
  268SOL    HW2 1071   0.989   0.187   1.332
  268SOL     MW 1072   0.945   0.253   1.375
  269SOL     OW 1073   2.662   3.023   2.419
  269SOL    HW1 1074   2.612   3.052   2.342
  269SOL    HW2 1075   2.631   3.080   2.490
  269SOL     MW 1076   2.655   3.030   2.419
  270SOL     OW 1077   3.079   2.029   2.370
  270SOL    HW1 1078   3.081   2.122   2.347
  270SOL    HW2 1079   3.009   2.022   2.435
  270SOL     MW 1080   3.073   2.036   2.373
  271SOL     OW 1081   1.662   0.470   0.668
  271SOL    HW1 1082   1.696   0.426   0.745
  271SOL    HW2 1083   1.626   0.398   0.614
  271SOL     MW 1084   1.661   0.460   0.670
  272SOL     OW 1085   2.697   3.094   0.961
  272SOL    HW1 1086   2.764   3.034   0.929
  272SOL    HW2 1087   2.707   3.094   1.057
  272SOL     MW 1088   2.704   3.090   0.967
  273SOL     OW 1089   2.195   2.320   1.657
  273SOL    HW1 1090   2.246   2.271   1.721
  273SOL    HW2 1091   2.173   2.403   1.701
  273SOL     MW 1092   2.198   2.323   1.666
  274SOL     OW 1093   2.995   2.675   0.592
  274SOL    HW1 1094   3.039   2.591   0.604
  274SOL    HW2 1095   2.904   2.658   0.619
  274SOL     MW 1096   2.991   2.666   0.596
  275SOL     OW 1097  -0.019   0.262   0.485
  275SOL    HW1 1098  -0.002   0.180   0.440
  275SOL    HW2 1099   0.049   0.267   0.553
  275SOL     MW 1100  -0.011   0.256   0.487
  276SOL     OW 1101  -0.013   2.153   3.006
  276SOL    HW1 1102  -0.017   2.223   2.942
  276SOL    HW2 1103   0.068   2.105   2.985
  276SOL     MW 1104  -0.005   2.155   2.999
  277SOL     OW 1105   1.134   1.459   2.296
  277SOL    HW1 1106   1.063   1.412   2.339
  277SOL    HW2 1107   1.093   1.505   2.222
  277SOL     MW 1108   1.124   1.460   2.293
  278SOL     OW 1109   0.262   1.023   1.607
  278SOL    HW1 1110   0.276   1.097   1.665
  278SOL    HW2 1111   0.225   1.060   1.527
  278SOL     MW 1112   0.261   1.033   1.605
  279SOL     OW 1113   0.238   2.147   0.298
  279SOL    HW1 1114   0.146   2.156   0.321
  279SOL    HW2 1115   0.237   2.111   0.208
  279SOL     MW 1116   0.230   2.145   0.291
  280SOL     OW 1117   2.474   2.929   1.510
  280SOL    HW1 1118   2.523   2.929   1.592
  280SOL    HW2 1119   2.521   2.868   1.453
  280SOL     MW 1120   2.482   2.923   1.512
  281SOL     OW 1121   0.517   0.291   0.447
  281SOL    HW1 1122   0.481   0.205   0.466
  281SOL    HW2 1123   0.603   0.292   0.491
  281SOL     MW 1124   0.522   0.284   0.452
  282SOL     OW 1125   1.032   2.342   2.810
  282SOL    HW1 1126   1.040   2.420   2.864
  282SOL    HW2 1127   1.105   2.350   2.747
  282SOL     MW 1128   1.040   2.349   2.809
  283SOL     OW 1129   0.766   2.517   2.678
  283SOL    HW1 1130   0.829   2.455   2.715
  283SOL    HW2 1131   0.705   2.463   2.627
  283SOL     MW 1132   0.766   2.507   2.677
  284SOL     OW 1133   2.729   3.068   0.532
  284SOL    HW1 1134   2.779   3.135   0.579
  284SOL    HW2 1135   2.772   2.985   0.557
  284SOL     MW 1136   2.737   3.066   0.539
  285SOL     OW 1137   1.945   1.094   0.202
  285SOL    HW1 1138   1.952   1.164   0.267
  285SOL    HW2 1139   1.999   1.124   0.129
  285SOL     MW 1140   1.951   1.102   0.201
  286SOL     OW 1141   2.053   0.164   1.337
  286SOL    HW1 1142   1.999   0.201   1.406
  286SOL    HW2 1143   2.023   0.072   1.331
  286SOL     MW 1144   2.045   0.159   1.342
  287SOL     OW 1145   1.298   2.958   1.068
  287SOL    HW1 1146   1.296   3.053   1.054
  287SOL    HW2 1147   1.334   2.922   0.986
  287SOL     MW 1148   1.302   2.963   1.059
  288SOL     OW 1149   2.002   3.111   1.251
  288SOL    HW1 1150   1.954   3.106   1.169
  288SOL    HW2 1151   1.937   3.093   1.319
  288SOL     MW 1152   1.992   3.108   1.250
  289SOL     OW 1153   2.424   0.919   0.734
  289SOL    HW1 1154   2.414   0.841   0.788
  289SOL    HW2 1155   2.334   0.946   0.713
  289SOL     MW 1156   2.415   0.915   0.737
  290SOL     OW 1157   3.081   0.863   1.661
  290SOL    HW1 1158   3.014   0.799   1.680
  290SOL    HW2 1159   3.044   0.916   1.589
  290SOL     MW 1160   3.072   0.863   1.657
  291SOL     OW 1161   2.967   1.348   0.189
  291SOL    HW1 1162   2.884   1.307   0.212
  291SOL    HW2 1163   2.959   1.438   0.221
  291SOL     MW 1164   2.959   1.352   0.195
  292SOL     OW 1165   0.550   1.902   2.204
  292SOL    HW1 1166   0.612   1.965   2.240
  292SOL    HW2 1167   0.503   1.951   2.136
  292SOL     MW 1168   0.552   1.912   2.201
  293SOL     OW 1169   0.356   0.167   1.090
  293SOL    HW1 1170   0.304   0.242   1.063
  293SOL    HW2 1171   0.395   0.194   1.174
  293SOL     MW 1172   0.354   0.175   1.096
  294SOL     OW 1173   0.062   1.618   2.274
  294SOL    HW1 1174   0.071   1.710   2.297
  294SOL    HW2 1175   0.030   1.576   2.354
  294SOL     MW 1176   0.060   1.622   2.283
  295SOL     OW 1177   2.345   3.059   1.795
  295SOL    HW1 1178   2.433   3.081   1.825
  295SOL    HW2 1179   2.358   3.007   1.715
  295SOL     MW 1180   2.354   3.056   1.791
  296SOL     OW 1181   0.448   2.096   2.796
  296SOL    HW1 1182   0.447   2.062   2.885
  296SOL    HW2 1183   0.377   2.049   2.751
  296SOL     MW 1184   0.441   2.090   2.800
  297SOL     OW 1185   2.135   1.853   0.976
  297SOL    HW1 1186   2.076   1.920   0.942
  297SOL    HW2 1187   2.182   1.821   0.898
  297SOL     MW 1188   2.135   1.857   0.966
  298SOL     OW 1189   0.693   2.066   2.035
  298SOL    HW1 1190   0.654   2.127   2.097
  298SOL    HW2 1191   0.633   2.067   1.960
  298SOL     MW 1192   0.685   2.072   2.033
  299SOL     OW 1193   3.072   1.816   0.200
  299SOL    HW1 1194   3.008   1.850   0.262
  299SOL    HW2 1195   3.082   1.886   0.135
  299SOL     MW 1196   3.068   1.826   0.200
  300SOL     OW 1197   0.763   2.177   0.495
  300SOL    HW1 1198   0.722   2.100   0.534
  300SOL    HW2 1199   0.846   2.144   0.459
  300SOL     MW 1200   0.767   2.167   0.494
  301SOL     OW 1201   1.306   0.325   2.649
  301SOL    HW1 1202   1.265   0.264   2.710
  301SOL    HW2 1203   1.235   0.349   2.588
  301SOL     MW 1204   1.296   0.323   2.649
  302SOL     OW 1205   0.987   2.818   2.259
  302SOL    HW1 1206   0.920   2.762   2.221
  302SOL    HW2 1207   0.947   2.852   2.340
  302SOL     MW 1208   0.978   2.816   2.263
  303SOL     OW 1209   0.782   1.576   1.495
  303SOL    HW1 1210   0.777   1.484   1.473
  303SOL    HW2 1211   0.789   1.621   1.410
  303SOL     MW 1212   0.782   1.572   1.485
  304SOL     OW 1213   2.610   0.135   1.164
  304SOL    HW1 1214   2.611   0.050   1.121
  304SOL    HW2 1215   2.654   0.122   1.248
  304SOL     MW 1216   2.614   0.127   1.168
  305SOL     OW 1217   1.769   0.476   2.259
  305SOL    HW1 1218   1.732   0.400   2.215
  305SOL    HW2 1219   1.765   0.454   2.353
  305SOL     MW 1220   1.766   0.467   2.264
  306SOL     OW 1221   2.871   0.320   0.122
  306SOL    HW1 1222   2.784   0.280   0.126
  306SOL    HW2 1223   2.865   0.381   0.047
  306SOL     MW 1224   2.862   0.323   0.116
  307SOL     OW 1225   2.173   1.605   1.174
  307SOL    HW1 1226   2.213   1.535   1.225
  307SOL    HW2 1227   2.246   1.644   1.124
  307SOL     MW 1228   2.183   1.602   1.174
  308SOL     OW 1229   2.236   2.091   1.512
  308SOL    HW1 1230   2.160   2.138   1.478
  308SOL    HW2 1231   2.218   2.083   1.606
  308SOL     MW 1232   2.227   2.094   1.517
  309SOL     OW 1233   2.248   2.401   1.086
  309SOL    HW1 1234   2.343   2.411   1.086
  309SOL    HW2 1235   2.219   2.449   1.164
  309SOL     MW 1236   2.254   2.406   1.093
  310SOL     OW 1237   2.061   1.484   1.396
  310SOL    HW1 1238   2.029   1.571   1.415
  310SOL    HW2 1239   2.128   1.467   1.464
  310SOL     MW 1240   2.064   1.489   1.404
  311SOL     OW 1241   1.137   1.671   2.579
  311SOL    HW1 1242   1.218   1.660   2.529
  311SOL    HW2 1243   1.133   1.766   2.596
  311SOL     MW 1244   1.144   1.679   2.576
  312SOL     OW 1245   2.219   2.830   1.435
  312SOL    HW1 1246   2.228   2.855   1.527
  312SOL    HW2 1247   2.310   2.831   1.401
  312SOL     MW 1248   2.228   2.832   1.440
  313SOL     OW 1249   0.838   2.217   1.541
  313SOL    HW1 1250   0.933   2.212   1.543
  313SOL    HW2 1251   0.809   2.130   1.514
  313SOL     MW 1252   0.844   2.209   1.539
  314SOL     OW 1253   2.977   1.159   1.234
  314SOL    HW1 1254   2.994   1.252   1.246
  314SOL    HW2 1255   3.050   1.128   1.179
  314SOL     MW 1256   2.985   1.164   1.230
  315SOL     OW 1257   1.103   2.128   1.407
  315SOL    HW1 1258   1.103   2.082   1.490
  315SOL    HW2 1259   1.188   2.107   1.367
  315SOL     MW 1260   1.110   2.121   1.410
  316SOL     OW 1261   2.761   1.026   2.997
  316SOL    HW1 1262   2.717   0.954   2.952
  316SOL    HW2 1263   2.813   0.983   3.066
  316SOL     MW 1264   2.762   1.015   2.999
  317SOL     OW 1265   0.490   2.418   0.664
  317SOL    HW1 1266   0.460   2.336   0.703
  317SOL    HW2 1267   0.426   2.435   0.594
  317SOL     MW 1268   0.481   2.413   0.661
  318SOL     OW 1269   0.471   1.587   1.537
  318SOL    HW1 1270   0.563   1.578   1.514
  318SOL    HW2 1271   0.470   1.654   1.606
  318SOL     MW 1272   0.479   1.593   1.541
  319SOL     OW 1273   2.678   2.258   0.633
  319SOL    HW1 1274   2.598   2.224   0.595
  319SOL    HW2 1275   2.679   2.224   0.723
  319SOL     MW 1276   2.672   2.251   0.638
  320SOL     OW 1277   1.646   0.731   1.544
  320SOL    HW1 1278   1.603   0.783   1.476
  320SOL    HW2 1279   1.610   0.765   1.626
  320SOL     MW 1280   1.638   0.738   1.545
  321SOL     OW 1281   2.376   1.762   2.842
  321SOL    HW1 1282   2.423   1.698   2.895
  321SOL    HW2 1283   2.436   1.837   2.835
  321SOL     MW 1284   2.386   1.763   2.845
  322SOL     OW 1285   1.450   1.932   1.298
  322SOL    HW1 1286   1.396   1.956   1.224
  322SOL    HW2 1287   1.464   1.837   1.289
  322SOL     MW 1288   1.448   1.926   1.291
  323SOL     OW 1289   0.997   2.368   1.018
  323SOL    HW1 1290   1.026   2.310   0.948
  323SOL    HW2 1291   1.017   2.320   1.099
  323SOL     MW 1292   1.002   2.359   1.019
  324SOL     OW 1293   2.645   1.758   1.558
  324SOL    HW1 1294   2.568   1.771   1.503
  324SOL    HW2 1295   2.611   1.721   1.640
  324SOL     MW 1296   2.635   1.755   1.560
  325SOL     OW 1297   0.284   2.056   2.345
  325SOL    HW1 1298   0.264   1.976   2.296
  325SOL    HW2 1299   0.340   2.026   2.417
  325SOL     MW 1300   0.288   2.046   2.347
  326SOL     OW 1301   1.307   3.050   0.785
  326SOL    HW1 1302   1.224   3.026   0.826
  326SOL    HW2 1303   1.291   3.136   0.744
  326SOL     MW 1304   1.299   3.056   0.785
  327SOL     OW 1305   1.615   2.620   1.000
  327SOL    HW1 1306   1.655   2.670   1.070
  327SOL    HW2 1307   1.629   2.528   1.025
  327SOL     MW 1308   1.619   2.616   1.008
  328SOL     OW 1309   0.823   1.789   1.272
  328SOL    HW1 1310   0.874   1.834   1.204
  328SOL    HW2 1311   0.811   1.855   1.341
  328SOL     MW 1312   0.826   1.799   1.272
  329SOL     OW 1313   0.923   2.607   0.062
  329SOL    HW1 1314   0.973   2.663   0.121
  329SOL    HW2 1315   0.988   2.549   0.022
  329SOL     MW 1316   0.933   2.606   0.064
  330SOL     OW 1317   1.599   1.073   2.611
  330SOL    HW1 1318   1.580   1.148   2.556
  330SOL    HW2 1319   1.532   1.076   2.680
  330SOL     MW 1320   1.591   1.079   2.612
  331SOL     OW 1321   2.601   0.338   0.327
  331SOL    HW1 1322   2.509   0.345   0.350
  331SOL    HW2 1323   2.603   0.279   0.251
  331SOL     MW 1324   2.594   0.334   0.321
  332SOL     OW 1325   2.914   1.680   0.752
  332SOL    HW1 1326   2.909   1.772   0.775
  332SOL    HW2 1327   3.007   1.657   0.761
  332SOL     MW 1328   2.922   1.686   0.755
  333SOL     OW 1329   1.331   0.321   1.255
  333SOL    HW1 1330   1.275   0.330   1.332
  333SOL    HW2 1331   1.377   0.405   1.248
  333SOL     MW 1332   1.331   0.329   1.261
  334SOL     OW 1333   2.989   1.933   1.858
  334SOL    HW1 1334   2.942   1.858   1.896
  334SOL    HW2 1335   3.077   1.900   1.841
  334SOL     MW 1336   2.993   1.923   1.859
  335SOL     OW 1337   2.770   2.688   2.135
  335SOL    HW1 1338   2.704   2.675   2.202
  335SOL    HW2 1339   2.793   2.781   2.141
  335SOL     MW 1340   2.767   2.695   2.142
  336SOL     OW 1341   1.869   0.866   2.185
  336SOL    HW1 1342   1.932   0.834   2.250
  336SOL    HW2 1343   1.784   0.860   2.230
  336SOL     MW 1344   1.867   0.863   2.195
  337SOL     OW 1345   1.034   2.813   2.845
  337SOL    HW1 1346   0.958   2.868   2.832
  337SOL    HW2 1347   1.048   2.770   2.760
  337SOL     MW 1348   1.029   2.814   2.836
  338SOL     OW 1349   3.001   0.204   2.950
  338SOL    HW1 1350   2.991   0.118   2.910
  338SOL    HW2 1351   3.080   0.196   3.004
  338SOL     MW 1352   3.007   0.196   2.951
  339SOL     OW 1353   1.870   0.623   0.712
  339SOL    HW1 1354   1.826   0.671   0.642
  339SOL    HW2 1355   1.874   0.686   0.785
  339SOL     MW 1356   1.866   0.633   0.712
  340SOL     OW 1357   1.501   2.666   2.889
  340SOL    HW1 1358   1.435   2.614   2.934
  340SOL    HW2 1359   1.468   2.673   2.799
  340SOL     MW 1360   1.492   2.663   2.885
  341SOL     OW 1361   3.016   1.983   2.071
  341SOL    HW1 1362   3.081   1.914   2.060
  341SOL    HW2 1363   3.040   2.028   2.152
  341SOL     MW 1364   3.024   1.982   2.077
  342SOL     OW 1365   1.817   0.081   1.763
  342SOL    HW1 1366   1.724   0.063   1.767
  342SOL    HW2 1367   1.836   0.090   1.669
  342SOL     MW 1368   1.811   0.081   1.755
  343SOL     OW 1369   0.448   2.769   2.270
  343SOL    HW1 1370   0.422   2.766   2.178
  343SOL    HW2 1371   0.368   2.747   2.319
  343SOL     MW 1372   0.439   2.766   2.267
  344SOL     OW 1373   1.194   2.081   1.974
  344SOL    HW1 1374   1.102   2.083   1.998
  344SOL    HW2 1375   1.241   2.078   2.057
  344SOL     MW 1376   1.190   2.081   1.983
  345SOL     OW 1377   2.482   2.023   1.604
  345SOL    HW1 1378   2.548   2.081   1.566
  345SOL    HW2 1379   2.431   2.080   1.662
  345SOL     MW 1380   2.483   2.033   1.606
  346SOL     OW 1381   2.369   0.687   2.020
  346SOL    HW1 1382   2.311   0.631   2.072
  346SOL    HW2 1383   2.312   0.721   1.950
  346SOL     MW 1384   2.358   0.686   2.019
  347SOL     OW 1385   0.656   1.738   3.034
  347SOL    HW1 1386   0.749   1.717   3.028
  347SOL    HW2 1387   0.649   1.794   3.113
  347SOL     MW 1388   0.663   1.742   3.041
  348SOL     OW 1389   0.472   2.611   2.562
  348SOL    HW1 1390   0.447   2.523   2.587
  348SOL    HW2 1391   0.529   2.599   2.485
  348SOL     MW 1392   0.475   2.603   2.556
  349SOL     OW 1393   2.606   1.580   2.309
  349SOL    HW1 1394   2.646   1.585   2.223
  349SOL    HW2 1395   2.540   1.650   2.308
  349SOL     MW 1396   2.603   1.587   2.301
  350SOL     OW 1397   2.387   0.163   0.482
  350SOL    HW1 1398   2.450   0.094   0.503
  350SOL    HW2 1399   2.423   0.242   0.524
  350SOL     MW 1400   2.396   0.164   0.487
  351SOL     OW 1401   0.419   1.375   2.047
  351SOL    HW1 1402   0.363   1.449   2.070
  351SOL    HW2 1403   0.365   1.297   2.061
  351SOL     MW 1404   0.409   1.375   2.049
  352SOL     OW 1405   2.280   1.002   2.343
  352SOL    HW1 1406   2.217   0.953   2.291
  352SOL    HW2 1407   2.302   1.078   2.289
  352SOL     MW 1408   2.276   1.005   2.334
  353SOL     OW 1409   0.509   2.156   0.097
  353SOL    HW1 1410   0.450   2.155   0.171
  353SOL    HW2 1411   0.452   2.177   0.022
  353SOL     MW 1412   0.499   2.158   0.096
  354SOL     OW 1413   2.159   0.661   0.521
  354SOL    HW1 1414   2.136   0.647   0.430
  354SOL    HW2 1415   2.255   0.659   0.523
  354SOL     MW 1416   2.166   0.660   0.513
  355SOL     OW 1417   0.200   2.938   1.533
  355SOL    HW1 1418   0.142   2.913   1.605
  355SOL    HW2 1419   0.177   2.877   1.462
  355SOL     MW 1420   0.192   2.930   1.533
  356SOL     OW 1421   2.324   0.530   2.932
  356SOL    HW1 1422   2.333   0.447   2.885
  356SOL    HW2 1423   2.383   0.522   3.007
  356SOL     MW 1424   2.331   0.522   2.934
  357SOL     OW 1425   2.650   0.615   0.323
  357SOL    HW1 1426   2.678   0.549   0.386
  357SOL    HW2 1427   2.594   0.568   0.261
  357SOL     MW 1428   2.647   0.605   0.323
  358SOL     OW 1429   1.574   2.735   0.400
  358SOL    HW1 1430   1.588   2.829   0.390
  358SOL    HW2 1431   1.517   2.712   0.326
  358SOL     MW 1432   1.570   2.741   0.392
  359SOL     OW 1433   0.971   2.881   2.020
  359SOL    HW1 1434   1.014   2.963   2.044
  359SOL    HW2 1435   0.896   2.908   1.966
  359SOL     MW 1436   0.969   2.891   2.016
  360SOL     OW 1437   1.516   0.194   3.002
  360SOL    HW1 1438   1.537   0.147   2.922
  360SOL    HW2 1439   1.448   0.257   2.977
  360SOL     MW 1440   1.511   0.195   2.993
  361SOL     OW 1441   0.686   0.994   0.264
  361SOL    HW1 1442   0.602   1.030   0.293
  361SOL    HW2 1443   0.685   1.008   0.168
  361SOL     MW 1444   0.679   0.999   0.258
  362SOL     OW 1445   0.684   2.957   0.422
  362SOL    HW1 1446   0.671   2.902   0.345
  362SOL    HW2 1447   0.777   2.944   0.445
  362SOL     MW 1448   0.692   2.952   0.417
  363SOL     OW 1449   1.873   0.663   2.737
  363SOL    HW1 1450   1.820   0.740   2.754
  363SOL    HW2 1451   1.851   0.638   2.647
  363SOL     MW 1452   1.867   0.668   2.730
  364SOL     OW 1453   1.655   0.632   1.320
  364SOL    HW1 1454   1.742   0.654   1.350
  364SOL    HW2 1455   1.669   0.562   1.255
  364SOL     MW 1456   1.663   0.627   1.317
  365SOL     OW 1457   1.450   1.836   0.997
  365SOL    HW1 1458   1.445   1.750   0.957
  365SOL    HW2 1459   1.523   1.828   1.060
  365SOL     MW 1460   1.457   1.828   0.999
  366SOL     OW 1461   1.446   2.018   2.962
  366SOL    HW1 1462   1.377   2.063   2.912
  366SOL    HW2 1463   1.409   2.009   3.051
  366SOL     MW 1464   1.436   2.021   2.965
  367SOL     OW 1465   2.129   2.948   1.963
  367SOL    HW1 1466   2.051   2.915   1.918
  367SOL    HW2 1467   2.147   2.883   2.031
  367SOL     MW 1468   2.124   2.939   1.965
  368SOL     OW 1469   2.308   0.595   0.281
  368SOL    HW1 1470   2.378   0.572   0.221
  368SOL    HW2 1471   2.316   0.532   0.354
  368SOL     MW 1472   2.315   0.588   0.283
  369SOL     OW 1473   0.517   2.312   1.501
  369SOL    HW1 1474   0.579   2.366   1.453
  369SOL    HW2 1475   0.490   2.367   1.575
  369SOL     MW 1476   0.519   2.322   1.503
  370SOL     OW 1477   0.730   0.447   2.895
  370SOL    HW1 1478   0.807   0.398   2.922
  370SOL    HW2 1479   0.673   0.448   2.973
  370SOL     MW 1480   0.732   0.444   2.905
  371SOL     OW 1481   2.200   1.781   0.678
  371SOL    HW1 1482   2.149   1.700   0.680
  371SOL    HW2 1483   2.163   1.831   0.605
  371SOL     MW 1484   2.192   1.779   0.672
  372SOL     OW 1485   2.579   1.296   1.101
  372SOL    HW1 1486   2.513   1.288   1.033
  372SOL    HW2 1487   2.637   1.367   1.070
  372SOL     MW 1488   2.579   1.302   1.093
  373SOL     OW 1489   2.894   1.260   2.580
  373SOL    HW1 1490   2.856   1.179   2.613
  373SOL    HW2 1491   2.830   1.293   2.516
  373SOL     MW 1492   2.885   1.257   2.578
  374SOL     OW 1493   1.399   1.790   3.069
  374SOL    HW1 1494   1.454   1.750   3.002
  374SOL    HW2 1495   1.366   1.717   3.122
  374SOL     MW 1496   1.401   1.780   3.068
  375SOL     OW 1497   1.278   2.761   2.892
  375SOL    HW1 1498   1.218   2.688   2.880
  375SOL    HW2 1499   1.253   2.824   2.823
  375SOL     MW 1500   1.270   2.761   2.885
  376SOL     OW 1501   1.295   0.705   1.274
  376SOL    HW1 1502   1.320   0.619   1.306
  376SOL    HW2 1503   1.353   0.766   1.321
  376SOL     MW 1504   1.303   0.704   1.280
  377SOL     OW 1505   0.048   1.023   1.892
  377SOL    HW1 1506  -0.019   1.091   1.882
  377SOL    HW2 1507   0.100   1.052   1.968
  377SOL     MW 1508   0.046   1.031   1.899
  378SOL     OW 1509   2.356   2.268   2.873
  378SOL    HW1 1510   2.321   2.325   2.805
  378SOL    HW2 1511   2.385   2.328   2.942
  378SOL     MW 1512   2.355   2.278   2.874
  379SOL     OW 1513   2.294   2.107   2.151
  379SOL    HW1 1514   2.283   2.118   2.057
  379SOL    HW2 1515   2.315   2.013   2.162
  379SOL     MW 1516   2.295   2.099   2.144
  380SOL     OW 1517   2.716   1.879   1.295
  380SOL    HW1 1518   2.692   1.951   1.354
  380SOL    HW2 1519   2.745   1.808   1.353
  380SOL     MW 1520   2.716   1.879   1.305
  381SOL     OW 1521   2.726   2.244   1.631
  381SOL    HW1 1522   2.745   2.150   1.633
  381SOL    HW2 1523   2.801   2.285   1.677
  381SOL     MW 1524   2.735   2.240   1.635
  382SOL     OW 1525   0.722   0.705   0.432
  382SOL    HW1 1526   0.691   0.794   0.420
  382SOL    HW2 1527   0.740   0.699   0.527
  382SOL     MW 1528   0.721   0.712   0.440
  383SOL     OW 1529   0.201   2.459   0.192
  383SOL    HW1 1530   0.189   2.382   0.246
  383SOL    HW2 1531   0.111   2.489   0.171
  383SOL     MW 1532   0.192   2.456   0.195
  384SOL     OW 1533   0.981   2.031   0.234
  384SOL    HW1 1534   1.074   2.010   0.243
  384SOL    HW2 1535   0.942   2.005   0.319
  384SOL     MW 1536   0.985   2.028   0.243
  385SOL     OW 1537   2.778   2.902   2.561
  385SOL    HW1 1538   2.797   2.976   2.618
  385SOL    HW2 1539   2.721   2.845   2.614
  385SOL     MW 1540   2.774   2.904   2.571
  386SOL     OW 1541   1.830   0.924   2.511
  386SOL    HW1 1542   1.900   0.930   2.447
  386SOL    HW2 1543   1.854   0.847   2.565
  386SOL     MW 1544   1.838   0.918   2.511
  387SOL     OW 1545   1.886   1.871   2.853
  387SOL    HW1 1546   1.927   1.821   2.922
  387SOL    HW2 1547   1.904   1.821   2.772
  387SOL     MW 1548   1.891   1.862   2.851
  388SOL     OW 1549   2.642   2.817   0.989
  388SOL    HW1 1550   2.690   2.835   1.070
  388SOL    HW2 1551   2.688   2.742   0.950
  388SOL     MW 1552   2.650   2.812   0.993
  389SOL     OW 1553   1.737   2.597   2.814
  389SOL    HW1 1554   1.692   2.527   2.859
  389SOL    HW2 1555   1.676   2.625   2.745
  389SOL     MW 1556   1.727   2.594   2.812
  390SOL     OW 1557   1.149   1.327   2.851
  390SOL    HW1 1558   1.233   1.291   2.877
  390SOL    HW2 1559   1.103   1.253   2.809
  390SOL     MW 1560   1.152   1.317   2.850
  391SOL     OW 1561   0.808   0.522   1.213
  391SOL    HW1 1562   0.880   0.541   1.153
  391SOL    HW2 1563   0.730   0.518   1.157
  391SOL     MW 1564   0.807   0.523   1.203
  392SOL     OW 1565   0.033   1.403   0.022
  392SOL    HW1 1566  -0.019   1.473   0.061
  392SOL    HW2 1567  -0.011   1.322   0.049
  392SOL     MW 1568   0.024   1.402   0.027
  393SOL     OW 1569   1.029   1.079   2.618
  393SOL    HW1 1570   0.980   1.112   2.693
  393SOL    HW2 1571   0.997   1.130   2.543
  393SOL     MW 1572   1.023   1.087   2.618
  394SOL     OW 1573   2.179   0.209   0.921
  394SOL    HW1 1574   2.272   0.218   0.944
  394SOL    HW2 1575   2.149   0.299   0.906
  394SOL     MW 1576   2.185   0.218   0.921
  395SOL     OW 1577   1.841   1.417   1.814
  395SOL    HW1 1578   1.811   1.395   1.726
  395SOL    HW2 1579   1.884   1.337   1.846
  395SOL     MW 1580   1.843   1.408   1.809
  396SOL     OW 1581   2.606   1.647   2.557
  396SOL    HW1 1582   2.639   1.730   2.590
  396SOL    HW2 1583   2.684   1.594   2.542
  396SOL     MW 1584   2.616   1.649   2.559
  397SOL     OW 1585   1.001   0.095   0.550
  397SOL    HW1 1586   0.914   0.092   0.511
  397SOL    HW2 1587   1.060   0.116   0.477
  397SOL     MW 1588   0.999   0.097   0.540
  398SOL     OW 1589   2.115   1.228   2.565
  398SOL    HW1 1590   2.172   1.293   2.525
  398SOL    HW2 1591   2.175   1.166   2.607
  398SOL     MW 1592   2.125   1.228   2.566
  399SOL     OW 1593   0.651   2.511   0.275
  399SOL    HW1 1594   0.582   2.560   0.230
  399SOL    HW2 1595   0.605   2.464   0.345
  399SOL     MW 1596   0.641   2.511   0.277
  400SOL     OW 1597   0.866   0.508   1.762
  400SOL    HW1 1598   0.876   0.466   1.676
  400SOL    HW2 1599   0.953   0.501   1.802
  400SOL     MW 1600   0.875   0.504   1.758
  401SOL     OW 1601   1.284   1.239   2.644
  401SOL    HW1 1602   1.356   1.290   2.607
  401SOL    HW2 1603   1.218   1.235   2.574
  401SOL     MW 1604   1.285   1.243   2.634
  402SOL     OW 1605   0.354   1.826   1.756
  402SOL    HW1 1606   0.304   1.773   1.694
  402SOL    HW2 1607   0.422   1.767   1.789
  402SOL     MW 1608   0.356   1.816   1.753
  403SOL     OW 1609   0.578   0.830   2.012
  403SOL    HW1 1610   0.627   0.892   1.958
  403SOL    HW2 1611   0.624   0.746   1.999
  403SOL     MW 1612   0.587   0.828   2.006
  404SOL     OW 1613   2.829   2.032   2.215
  404SOL    HW1 1614   2.753   1.981   2.241
  404SOL    HW2 1615   2.800   2.080   2.137
  404SOL     MW 1616   2.820   2.033   2.211
  405SOL     OW 1617   1.925   2.802   1.058
  405SOL    HW1 1618   2.018   2.782   1.066
  405SOL    HW2 1619   1.894   2.749   0.984
  405SOL     MW 1620   1.930   2.795   1.053
  406SOL     OW 1621   0.586   0.631   2.534
  406SOL    HW1 1622   0.669   0.606   2.496
  406SOL    HW2 1623   0.605   0.711   2.584
  406SOL     MW 1624   0.594   0.636   2.534
  407SOL     OW 1625   0.166   2.559   0.491
  407SOL    HW1 1626   0.175   2.566   0.396
  407SOL    HW2 1627   0.085   2.509   0.504
  407SOL     MW 1628   0.160   2.555   0.484
  408SOL     OW 1629   1.406   1.259   2.284
  408SOL    HW1 1630   1.340   1.275   2.350
  408SOL    HW2 1631   1.403   1.336   2.226
  408SOL     MW 1632   1.401   1.267   2.284
  409SOL     OW 1633   0.219   1.155   0.351
  409SOL    HW1 1634   0.257   1.139   0.265
  409SOL    HW2 1635   0.245   1.245   0.372
  409SOL     MW 1636   0.224   1.162   0.345
  410SOL     OW 1637   2.513   0.100   1.417
  410SOL    HW1 1638   2.528   0.178   1.471
  410SOL    HW2 1639   2.584   0.040   1.443
  410SOL     MW 1640   2.521   0.101   1.425
  411SOL     OW 1641   2.933   0.661   2.566
  411SOL    HW1 1642   2.956   0.580   2.521
  411SOL    HW2 1643   3.016   0.694   2.602
  411SOL     MW 1644   2.942   0.658   2.564
  412SOL     OW 1645   0.908   1.397   0.611
  412SOL    HW1 1646   0.875   1.469   0.664
  412SOL    HW2 1647   0.958   1.440   0.540
  412SOL     MW 1648   0.911   1.407   0.609
  413SOL     OW 1649   1.608   0.689   3.072
  413SOL    HW1 1650   1.650   0.766   3.108
  413SOL    HW2 1651   1.667   0.658   3.002
  413SOL     MW 1652   1.617   0.692   3.069
  414SOL     OW 1653   2.512   1.895   2.362
  414SOL    HW1 1654   2.586   1.846   2.396
  414SOL    HW2 1655   2.525   1.984   2.396
  414SOL     MW 1656   2.520   1.899   2.368
  415SOL     OW 1657   2.055   0.826   3.056
  415SOL    HW1 1658   2.066   0.894   3.122
  415SOL    HW2 1659   1.969   0.844   3.016
  415SOL     MW 1660   2.049   0.834   3.057
  416SOL     OW 1661   1.121   0.490   2.271
  416SOL    HW1 1662   1.205   0.445   2.266
  416SOL    HW2 1663   1.128   0.546   2.349
  416SOL     MW 1664   1.129   0.492   2.277
  417SOL     OW 1665   2.530   0.432   1.403
  417SOL    HW1 1666   2.544   0.397   1.490
  417SOL    HW2 1667   2.486   0.360   1.355
  417SOL     MW 1668   2.526   0.422   1.406
  418SOL     OW 1669   0.754   0.048   1.340
  418SOL    HW1 1670   0.808   0.075   1.266
  418SOL    HW2 1671   0.763   0.120   1.404
  418SOL     MW 1672   0.759   0.057   1.339
  419SOL     OW 1673   1.980   1.745   0.362
  419SOL    HW1 1674   1.926   1.695   0.422
  419SOL    HW2 1675   2.066   1.750   0.404
  419SOL     MW 1676   1.983   1.741   0.370
  420SOL     OW 1677   1.996   1.392   2.289
  420SOL    HW1 1678   1.930   1.335   2.249
  420SOL    HW2 1679   2.063   1.331   2.321
  420SOL     MW 1680   1.997   1.382   2.288
  421SOL     OW 1681   2.839   1.729   2.200
  421SOL    HW1 1682   2.915   1.786   2.200
  421SOL    HW2 1683   2.784   1.761   2.273
  421SOL     MW 1684   2.840   1.737   2.206
  422SOL     OW 1685   0.486   0.610   0.464
  422SOL    HW1 1686   0.414   0.593   0.525
  422SOL    HW2 1687   0.512   0.523   0.432
  422SOL     MW 1688   0.482   0.601   0.466
  423SOL     OW 1689   2.672   0.996   0.381
  423SOL    HW1 1690   2.671   1.012   0.475
  423SOL    HW2 1691   2.595   1.044   0.347
  423SOL     MW 1692   2.665   1.002   0.386
  424SOL     OW 1693   0.377   0.195   2.730
  424SOL    HW1 1694   0.305   0.227   2.676
  424SOL    HW2 1695   0.337   0.129   2.787
  424SOL     MW 1696   0.367   0.191   2.730
  425SOL     OW 1697   2.135   0.726   0.847
  425SOL    HW1 1698   2.064   0.732   0.911
  425SOL    HW2 1699   2.103   0.776   0.771
  425SOL     MW 1700   2.126   0.732   0.846
  426SOL     OW 1701   0.250   2.756   0.162
  426SOL    HW1 1702   0.217   2.678   0.207
  426SOL    HW2 1703   0.198   2.828   0.198
  426SOL     MW 1704   0.243   2.756   0.170
  427SOL     OW 1705   1.808   2.078   2.646
  427SOL    HW1 1706   1.839   2.055   2.733
  427SOL    HW2 1707   1.782   2.171   2.652
  427SOL     MW 1708   1.809   2.084   2.654
  428SOL     OW 1709   0.170   2.186   2.607
  428SOL    HW1 1710   0.206   2.240   2.676
  428SOL    HW2 1711   0.122   2.116   2.653
  428SOL     MW 1712   0.168   2.184   2.617
  429SOL     OW 1713   0.320   0.682   0.228
  429SOL    HW1 1714   0.234   0.720   0.248
  429SOL    HW2 1715   0.338   0.622   0.301
  429SOL     MW 1716   0.314   0.679   0.236
  430SOL     OW 1717   2.207   1.575   3.107
  430SOL    HW1 1718   2.150   1.628   3.052
  430SOL    HW2 1719   2.285   1.629   3.121
  430SOL     MW 1720   2.209   1.585   3.104
  431SOL     OW 1721   1.614   0.727   0.978
  431SOL    HW1 1722   1.570   0.805   1.009
  431SOL    HW2 1723   1.705   0.755   0.962
  431SOL     MW 1724   1.619   0.736   0.979
  432SOL     OW 1725   1.827   0.054   0.890
  432SOL    HW1 1726   1.829   0.040   0.984
  432SOL    HW2 1727   1.733   0.054   0.868
  432SOL     MW 1728   1.819   0.054   0.896
  433SOL     OW 1729   0.011   1.842   1.330
  433SOL    HW1 1730   0.069   1.845   1.254
  433SOL    HW2 1731  -0.011   1.748   1.340
  433SOL     MW 1732   0.015   1.833   1.325
  434SOL     OW 1733   0.454   1.042   0.456
  434SOL    HW1 1734   0.426   1.128   0.424
  434SOL    HW2 1735   0.374   0.989   0.454
  434SOL     MW 1736   0.445   1.044   0.452
  435SOL     OW 1737   2.380   0.905   2.146
  435SOL    HW1 1738   2.300   0.881   2.100
  435SOL    HW2 1739   2.389   0.839   2.215
  435SOL     MW 1740   2.375   0.897   2.148
  436SOL     OW 1741   0.379   1.509   1.782
  436SOL    HW1 1742   0.312   1.576   1.792
  436SOL    HW2 1743   0.333   1.426   1.799
  436SOL     MW 1744   0.369   1.507   1.784
  437SOL     OW 1745   3.063   2.356   1.576
  437SOL    HW1 1746   2.986   2.322   1.531
  437SOL    HW2 1747   3.081   2.291   1.646
  437SOL     MW 1748   3.058   2.346   1.579
  438SOL     OW 1749   1.851   1.306   1.437
  438SOL    HW1 1750   1.914   1.254   1.389
  438SOL    HW2 1751   1.904   1.355   1.501
  438SOL     MW 1752   1.861   1.306   1.439
  439SOL     OW 1753   2.116   0.104   2.843
  439SOL    HW1 1754   2.149   0.182   2.800
  439SOL    HW2 1755   2.025   0.096   2.814
  439SOL     MW 1756   2.111   0.109   2.836
  440SOL     OW 1757   1.383   0.124   1.620
  440SOL    HW1 1758   1.453   0.137   1.556
  440SOL    HW2 1759   1.356   0.213   1.645
  440SOL     MW 1760   1.386   0.133   1.616
  441SOL     OW 1761   3.000   0.160   0.363
  441SOL    HW1 1762   2.998   0.082   0.308
  441SOL    HW2 1763   3.081   0.151   0.415
  441SOL     MW 1764   3.008   0.153   0.363
  442SOL     OW 1765   1.886   0.414   1.366
  442SOL    HW1 1766   1.807   0.402   1.418
  442SOL    HW2 1767   1.853   0.444   1.280
  442SOL     MW 1768   1.876   0.416   1.363
  443SOL     OW 1769   2.286   1.824   1.619
  443SOL    HW1 1770   2.221   1.872   1.670
  443SOL    HW2 1771   2.316   1.887   1.553
  443SOL     MW 1772   2.283   1.834   1.618
  444SOL     OW 1773   1.253   1.577   0.505
  444SOL    HW1 1774   1.279   1.600   0.416
  444SOL    HW2 1775   1.230   1.484   0.501
  444SOL     MW 1776   1.254   1.571   0.497
  445SOL     OW 1777   0.525   2.690   0.983
  445SOL    HW1 1778   0.517   2.717   0.892
  445SOL    HW2 1779   0.451   2.631   0.997
  445SOL     MW 1780   0.518   2.687   0.976
  446SOL     OW 1781   1.582   2.122   2.812
  446SOL    HW1 1782   1.605   2.070   2.735
  446SOL    HW2 1783   1.666   2.137   2.856
  446SOL     MW 1784   1.592   2.119   2.809
  447SOL     OW 1785   2.255   0.776   2.979
  447SOL    HW1 1786   2.201   0.726   2.919
  447SOL    HW2 1787   2.281   0.712   3.047
  447SOL     MW 1788   2.254   0.766   2.980
  448SOL     OW 1789   0.125   1.426   2.173
  448SOL    HW1 1790   0.046   1.401   2.221
  448SOL    HW2 1791   0.184   1.350   2.182
  448SOL     MW 1792   0.123   1.417   2.178
  449SOL     OW 1793   1.194   0.614   0.550
  449SOL    HW1 1794   1.143   0.615   0.631
  449SOL    HW2 1795   1.150   0.677   0.492
  449SOL     MW 1796   1.186   0.620   0.552
  450SOL     OW 1797   1.400   0.583   0.758
  450SOL    HW1 1798   1.383   0.489   0.752
  450SOL    HW2 1799   1.489   0.594   0.724
  450SOL     MW 1800   1.406   0.576   0.754
  451SOL     OW 1801   1.988   2.781   2.912
  451SOL    HW1 1802   1.932   2.803   2.986
  451SOL    HW2 1803   1.927   2.752   2.843
  451SOL     MW 1804   1.977   2.781   2.912
  452SOL     OW 1805   2.367   0.425   0.058
  452SOL    HW1 1806   2.452   0.388   0.079
  452SOL    HW2 1807   2.316   0.351   0.022
  452SOL     MW 1808   2.369   0.415   0.057
  453SOL     OW 1809   1.652   2.420   2.434
  453SOL    HW1 1810   1.611   2.478   2.498
  453SOL    HW2 1811   1.736   2.462   2.415
  453SOL     MW 1812   1.656   2.428   2.438
  454SOL     OW 1813   0.382   0.108   2.445
  454SOL    HW1 1814   0.430   0.040   2.398
  454SOL    HW2 1815   0.423   0.111   2.532
  454SOL     MW 1816   0.390   0.103   2.449
  455SOL     OW 1817   2.656   1.118   2.533
  455SOL    HW1 1818   2.595   1.168   2.480
  455SOL    HW2 1819   2.613   1.108   2.618
  455SOL     MW 1820   2.647   1.121   2.536
  456SOL     OW 1821   2.295   0.503   2.541
  456SOL    HW1 1822   2.322   0.451   2.616
  456SOL    HW2 1823   2.357   0.479   2.471
  456SOL     MW 1824   2.303   0.496   2.541
  457SOL     OW 1825  -0.004   0.799   2.879
  457SOL    HW1 1826   0.071   0.768   2.931
  457SOL    HW2 1827  -0.019   0.729   2.815
  457SOL     MW 1828   0.001   0.789   2.878
  458SOL     OW 1829   0.172   1.723   0.759
  458SOL    HW1 1830   0.227   1.649   0.737
  458SOL    HW2 1831   0.097   1.684   0.806
  458SOL     MW 1832   0.170   1.713   0.762
  459SOL     OW 1833   2.757   2.669   0.367
  459SOL    HW1 1834   2.713   2.608   0.426
  459SOL    HW2 1835   2.823   2.615   0.322
  459SOL     MW 1836   2.759   2.659   0.367
  460SOL     OW 1837   1.574   1.371   0.130
  460SOL    HW1 1838   1.564   1.286   0.173
  460SOL    HW2 1839   1.591   1.432   0.203
  460SOL     MW 1840   1.575   1.369   0.140
  461SOL     OW 1841   1.468   0.855   2.370
  461SOL    HW1 1842   1.426   0.770   2.366
  461SOL    HW2 1843   1.408   0.914   2.323
  461SOL     MW 1844   1.458   0.854   2.366
  462SOL     OW 1845   0.532   1.987   0.292
  462SOL    HW1 1846   0.550   2.056   0.355
  462SOL    HW2 1847   0.599   2.000   0.223
  462SOL     MW 1848   0.540   1.994   0.291
  463SOL     OW 1849   2.224   0.300   1.426
  463SOL    HW1 1850   2.233   0.289   1.520
  463SOL    HW2 1851   2.273   0.381   1.407
  463SOL     MW 1852   2.230   0.306   1.432
  464SOL     OW 1853   2.045   2.170   1.281
  464SOL    HW1 1854   2.044   2.231   1.208
  464SOL    HW2 1855   2.120   2.112   1.263
  464SOL     MW 1856   2.052   2.171   1.274
  465SOL     OW 1857   0.282   3.070   0.784
  465SOL    HW1 1858   0.224   3.018   0.839
  465SOL    HW2 1859   0.361   3.083   0.838
  465SOL     MW 1860   0.285   3.066   0.793
  466SOL     OW 1861   3.024   2.221   2.643
  466SOL    HW1 1862   3.081   2.277   2.695
  466SOL    HW2 1863   3.082   2.152   2.610
  466SOL     MW 1864   3.034   2.219   2.645
  467SOL     OW 1865   2.322   1.596   2.639
  467SOL    HW1 1866   2.410   1.612   2.672
  467SOL    HW2 1867   2.270   1.670   2.673
  467SOL     MW 1868   2.325   1.605   2.644
  468SOL     OW 1869   0.363   2.272   3.065
  468SOL    HW1 1870   0.304   2.238   2.998
  468SOL    HW2 1871   0.381   2.197   3.122
  468SOL     MW 1872   0.360   2.263   3.064
  469SOL     OW 1873   1.877   1.695   1.314
  469SOL    HW1 1874   1.825   1.630   1.360
  469SOL    HW2 1875   1.818   1.732   1.248
  469SOL     MW 1876   1.867   1.693   1.312
  470SOL     OW 1877   2.699   1.428   2.078
  470SOL    HW1 1878   2.788   1.401   2.097
  470SOL    HW2 1879   2.682   1.394   1.989
  470SOL     MW 1880   2.705   1.422   2.072
  471SOL     OW 1881   2.039   0.934   2.657
  471SOL    HW1 1882   2.092   0.863   2.620
  471SOL    HW2 1883   1.992   0.893   2.730
  471SOL     MW 1884   2.040   0.924   2.661
  472SOL     OW 1885   0.667   3.126   0.123
  472SOL    HW1 1886   0.592   3.091   0.075
  472SOL    HW2 1887   0.681   3.064   0.195
  472SOL     MW 1888   0.663   3.117   0.125
  473SOL     OW 1889   0.662   2.543   0.891
  473SOL    HW1 1890   0.620   2.478   0.946
  473SOL    HW2 1891   0.742   2.500   0.859
  473SOL     MW 1892   0.665   2.534   0.892
  474SOL     OW 1893   0.304   1.944   3.059
  474SOL    HW1 1894   0.235   1.880   3.070
  474SOL    HW2 1895   0.266   2.010   3.000
  474SOL     MW 1896   0.294   1.945   3.055
  475SOL     OW 1897   1.185   2.705   2.331
  475SOL    HW1 1898   1.180   2.733   2.422
  475SOL    HW2 1899   1.147   2.617   2.330
  475SOL     MW 1900   1.180   2.700   2.338
  476SOL     OW 1901   0.854   2.643   2.902
  476SOL    HW1 1902   0.908   2.683   2.970
  476SOL    HW2 1903   0.802   2.716   2.866
  476SOL     MW 1904   0.854   2.653   2.904
  477SOL     OW 1905   2.478   1.556   1.980
  477SOL    HW1 1906   2.518   1.593   1.901
  477SOL    HW2 1907   2.412   1.620   2.007
  477SOL     MW 1908   2.475   1.564   1.975
  478SOL     OW 1909   1.086   1.612   1.657
  478SOL    HW1 1910   1.102   1.614   1.564
  478SOL    HW2 1911   1.083   1.704   1.684
  478SOL     MW 1912   1.086   1.620   1.652
  479SOL     OW 1913   2.735   1.031   1.017
  479SOL    HW1 1914   2.747   0.960   0.954
  479SOL    HW2 1915   2.646   1.020   1.051
  479SOL     MW 1916   2.728   1.024   1.015
  480SOL     OW 1917   2.748   0.839   0.674
  480SOL    HW1 1918   2.743   0.840   0.769
  480SOL    HW2 1919   2.656   0.843   0.645
  480SOL     MW 1920   2.739   0.840   0.679
  481SOL     OW 1921   1.492   0.173   1.900
  481SOL    HW1 1922   1.527   0.148   1.815
  481SOL    HW2 1923   1.570   0.194   1.953
  481SOL     MW 1924   1.502   0.173   1.897
  482SOL     OW 1925   2.708   1.511   2.792
  482SOL    HW1 1926   2.721   1.444   2.859
  482SOL    HW2 1927   2.782   1.500   2.732
  482SOL     MW 1928   2.715   1.504   2.792
  483SOL     OW 1929   2.575   2.991   0.669
  483SOL    HW1 1930   2.642   3.000   0.737
  483SOL    HW2 1931   2.523   3.072   0.675
  483SOL     MW 1932   2.576   3.000   0.675
  484SOL     OW 1933   1.682   0.878   1.273
  484SOL    HW1 1934   1.753   0.938   1.252
  484SOL    HW2 1935   1.680   0.816   1.200
  484SOL     MW 1936   1.688   0.877   1.265
  485SOL     OW 1937   0.211   1.070   3.003
  485SOL    HW1 1938   0.279   1.040   3.063
  485SOL    HW2 1939   0.234   1.030   2.918
  485SOL     MW 1940   0.219   1.063   3.000
  486SOL     OW 1941   0.455   3.000   1.108
  486SOL    HW1 1942   0.372   3.008   1.154
  486SOL    HW2 1943   0.451   3.066   1.039
  486SOL     MW 1944   0.448   3.007   1.106
  487SOL     OW 1945   0.930   0.058   1.546
  487SOL    HW1 1946   1.022   0.041   1.526
  487SOL    HW2 1947   0.933   0.118   1.621
  487SOL     MW 1948   0.938   0.062   1.551
  488SOL     OW 1949   1.239   3.040   2.896
  488SOL    HW1 1950   1.150   3.071   2.884
  488SOL    HW2 1951   1.294   3.102   2.846
  488SOL     MW 1952   1.237   3.049   2.891
  489SOL     OW 1953   0.750   2.871   0.724
  489SOL    HW1 1954   0.818   2.932   0.752
  489SOL    HW2 1955   0.701   2.919   0.657
  489SOL     MW 1956   0.752   2.880   0.720
  490SOL     OW 1957   0.563   2.480   1.246
  490SOL    HW1 1958   0.485   2.493   1.300
  490SOL    HW2 1959   0.556   2.548   1.177
  490SOL     MW 1960   0.556   2.488   1.244
  491SOL     OW 1961   1.222   1.759   1.864
  491SOL    HW1 1962   1.232   1.789   1.954
  491SOL    HW2 1963   1.193   1.668   1.871
  491SOL     MW 1964   1.220   1.754   1.872
  492SOL     OW 1965   0.405   0.815   2.153
  492SOL    HW1 1966   0.412   0.723   2.129
  492SOL    HW2 1967   0.481   0.832   2.209
  492SOL     MW 1968   0.413   0.809   2.155
  493SOL     OW 1969   1.507   2.336   0.113
  493SOL    HW1 1970   1.478   2.255   0.155
  493SOL    HW2 1971   1.429   2.393   0.116
  493SOL     MW 1972   1.497   2.334   0.118
  494SOL     OW 1973   0.814   2.089   1.238
  494SOL    HW1 1974   0.775   2.175   1.249
  494SOL    HW2 1975   0.877   2.081   1.310
  494SOL     MW 1976   0.816   2.095   1.246
  495SOL     OW 1977   0.357   0.755   2.509
  495SOL    HW1 1978   0.279   0.785   2.464
  495SOL    HW2 1979   0.427   0.815   2.480
  495SOL     MW 1980   0.357   0.763   2.503
  496SOL     OW 1981   0.037   2.252   0.155
  496SOL    HW1 1982   0.044   2.185   0.087
  496SOL    HW2 1983  -0.019   2.320   0.116
  496SOL     MW 1984   0.032   2.252   0.146
  497SOL     OW 1985   2.466   0.176   2.381
  497SOL    HW1 1986   2.505   0.090   2.392
  497SOL    HW2 1987   2.403   0.184   2.454
  497SOL     MW 1988   2.464   0.169   2.389
  498SOL     OW 1989   0.703   2.952   2.396
  498SOL    HW1 1990   0.682   3.045   2.391
  498SOL    HW2 1991   0.632   2.914   2.449
  498SOL     MW 1992   0.694   2.957   2.400
  499SOL     OW 1993   1.022   1.232   3.081
  499SOL    HW1 1994   1.018   1.325   3.103
  499SOL    HW2 1995   1.112   1.220   3.047
  499SOL     MW 1996   1.030   1.239   3.080
  500SOL     OW 1997   0.987   2.998   3.047
  500SOL    HW1 1998   0.953   3.086   3.063
  500SOL    HW2 1999   1.045   2.981   3.122
  500SOL     MW 2000   0.989   3.004   3.056
  501SOL     OW 2001   1.116   0.916   0.393
  501SOL    HW1 2002   1.136   0.943   0.482
  501SOL    HW2 2003   1.046   0.850   0.404
  501SOL     MW 2004   1.111   0.912   0.402
  502SOL     OW 2005   2.107   2.559   1.523
  502SOL    HW1 2006   2.111   2.644   1.481
  502SOL    HW2 2007   2.041   2.570   1.593
  502SOL     MW 2008   2.101   2.567   1.525
  503SOL     OW 2009   2.047   2.894   2.610
  503SOL    HW1 2010   2.132   2.911   2.650
  503SOL    HW2 2011   2.057   2.921   2.518
  503SOL     MW 2012   2.055   2.897   2.605
  504SOL     OW 2013   3.003   2.778   0.863
  504SOL    HW1 2014   3.048   2.707   0.818
  504SOL    HW2 2015   2.911   2.750   0.867
  504SOL     MW 2016   2.999   2.769   0.860
  505SOL     OW 2017   2.653   2.400   0.858
  505SOL    HW1 2018   2.629   2.432   0.771
  505SOL    HW2 2019   2.608   2.460   0.919
  505SOL     MW 2020   2.646   2.408   0.856
  506SOL     OW 2021   1.667   1.002   2.356
  506SOL    HW1 2022   1.729   1.070   2.381
  506SOL    HW2 2023   1.581   1.044   2.361
  506SOL     MW 2024   1.665   1.012   2.358
  507SOL     OW 2025   0.200   0.864   1.913
  507SOL    HW1 2026   0.172   0.801   1.847
  507SOL    HW2 2027   0.152   0.839   1.992
  507SOL     MW 2028   0.194   0.856   1.914
  508SOL     OW 2029   2.397   0.958   1.066
  508SOL    HW1 2030   2.455   0.889   1.035
  508SOL    HW2 2031   2.440   0.993   1.145
  508SOL     MW 2032   2.406   0.956   1.070
  509SOL     OW 2033   2.259   0.716   1.108
  509SOL    HW1 2034   2.246   0.784   1.042
  509SOL    HW2 2035   2.342   0.739   1.151
  509SOL     MW 2036   2.265   0.724   1.106
  510SOL     OW 2037   2.193   2.964   1.009
  510SOL    HW1 2038   2.119   3.023   1.000
  510SOL    HW2 2039   2.267   3.011   0.969
  510SOL     MW 2040   2.194   2.974   1.005
  511SOL     OW 2041   0.689   1.258   1.045
  511SOL    HW1 2042   0.775   1.218   1.059
  511SOL    HW2 2043   0.680   1.320   1.119
  511SOL     MW 2044   0.696   1.261   1.053
  512SOL     OW 2045   0.933   2.416   2.375
  512SOL    HW1 2046   1.023   2.433   2.349
  512SOL    HW2 2047   0.933   2.323   2.401
  512SOL     MW 2048   0.941   2.409   2.376
  513SOL     OW 2049   1.724   3.054   1.979
  513SOL    HW1 2050   1.779   2.982   2.007
  513SOL    HW2 2051   1.787   3.124   1.955
  513SOL     MW 2052   1.735   3.054   1.979
  514SOL     OW 2053   2.246   1.062   0.524
  514SOL    HW1 2054   2.271   1.053   0.432
  514SOL    HW2 2055   2.239   1.158   0.537
  514SOL     MW 2056   2.247   1.070   0.517
  515SOL     OW 2057   0.251   0.376   2.102
  515SOL    HW1 2058   0.327   0.420   2.139
  515SOL    HW2 2059   0.177   0.404   2.157
  515SOL     MW 2060   0.251   0.383   2.110
  516SOL     OW 2061   2.903   0.963   1.986
  516SOL    HW1 2062   2.919   0.877   1.949
  516SOL    HW2 2063   2.920   0.952   2.080
  516SOL     MW 2064   2.906   0.955   1.991
  517SOL     OW 2065   2.952   2.039   1.582
  517SOL    HW1 2066   2.929   2.037   1.674
  517SOL    HW2 2067   3.045   2.064   1.580
  517SOL     MW 2068   2.959   2.041   1.589
  518SOL     OW 2069   1.599   2.405   2.190
  518SOL    HW1 2070   1.568   2.495   2.188
  518SOL    HW2 2071   1.519   2.353   2.205
  518SOL     MW 2072   1.589   2.408   2.191
  519SOL     OW 2073   0.884   0.282   0.726
  519SOL    HW1 2074   0.853   0.365   0.692
  519SOL    HW2 2075   0.832   0.216   0.679
  519SOL     MW 2076   0.877   0.283   0.718
  520SOL     OW 2077   2.920   2.053   3.057
  520SOL    HW1 2078   2.948   2.110   3.128
  520SOL    HW2 2079   2.991   1.988   3.049
  520SOL     MW 2080   2.929   2.051   3.063
  521SOL     OW 2081   2.741   1.916   1.967
  521SOL    HW1 2082   2.700   1.845   1.919
  521SOL    HW2 2083   2.772   1.875   2.049
  521SOL     MW 2084   2.741   1.906   1.970
  522SOL     OW 2085   2.526   1.522   3.092
  522SOL    HW1 2086   2.541   1.613   3.067
  522SOL    HW2 2087   2.580   1.471   3.031
  522SOL     MW 2088   2.533   1.525   3.085
  523SOL     OW 2089   1.129   1.242   0.662
  523SOL    HW1 2090   1.131   1.195   0.745
  523SOL    HW2 2091   1.220   1.241   0.632
  523SOL     MW 2092   1.137   1.237   0.666
  524SOL     OW 2093   0.879   1.700   0.519
  524SOL    HW1 2094   0.967   1.683   0.552
  524SOL    HW2 2095   0.857   1.622   0.468
  524SOL     MW 2096   0.885   1.691   0.518
  525SOL     OW 2097   0.297   0.280   1.819
  525SOL    HW1 2098   0.285   0.364   1.863
  525SOL    HW2 2099   0.321   0.303   1.729
  525SOL     MW 2100   0.299   0.290   1.815
  526SOL     OW 2101   2.162   2.384   1.992
  526SOL    HW1 2102   2.226   2.330   2.037
  526SOL    HW2 2103   2.128   2.328   1.921
  526SOL     MW 2104   2.164   2.374   1.990
  527SOL     OW 2105   2.492   1.282   2.811
  527SOL    HW1 2106   2.548   1.308   2.884
  527SOL    HW2 2107   2.483   1.187   2.820
  527SOL     MW 2108   2.496   1.276   2.818
  528SOL     OW 2109   2.570   1.986   1.804
  528SOL    HW1 2110   2.659   2.012   1.782
  528SOL    HW2 2111   2.558   2.014   1.895
  528SOL     MW 2112   2.576   1.991   1.810
  529SOL     OW 2113   1.104   2.561   0.384
  529SOL    HW1 2114   1.157   2.631   0.347
  529SOL    HW2 2115   1.091   2.500   0.311
  529SOL     MW 2116   1.108   2.561   0.374
  530SOL     OW 2117   0.656   1.651   1.216
  530SOL    HW1 2118   0.613   1.567   1.229
  530SOL    HW2 2119   0.712   1.639   1.139
  530SOL     MW 2120   0.657   1.643   1.210
  531SOL     OW 2121   2.855   0.928   1.282
  531SOL    HW1 2122   2.805   0.981   1.220
  531SOL    HW2 2123   2.791   0.867   1.319
  531SOL     MW 2124   2.845   0.927   1.280
  532SOL     OW 2125   1.617   0.716   2.470
  532SOL    HW1 2126   1.669   0.714   2.550
  532SOL    HW2 2127   1.669   0.769   2.408
  532SOL     MW 2128   1.627   0.720   2.471
  533SOL     OW 2129   2.875   2.314   2.403
  533SOL    HW1 2130   2.819   2.335   2.478
  533SOL    HW2 2131   2.952   2.272   2.443
  533SOL     MW 2132   2.877   2.312   2.413
  534SOL     OW 2133   1.846   1.208   2.507
  534SOL    HW1 2134   1.899   1.268   2.456
  534SOL    HW2 2135   1.768   1.260   2.531
  534SOL     MW 2136   1.843   1.218   2.504
  535SOL     OW 2137   1.387   1.599   1.246
  535SOL    HW1 2138   1.447   1.640   1.186
  535SOL    HW2 2139   1.436   1.592   1.329
  535SOL     MW 2140   1.396   1.602   1.249
  536SOL     OW 2141   2.450   2.340   1.770
  536SOL    HW1 2142   2.496   2.286   1.707
  536SOL    HW2 2143   2.508   2.416   1.783
  536SOL     MW 2144   2.459   2.343   1.765
  537SOL     OW 2145   0.107   1.461   0.735
  537SOL    HW1 2146   0.034   1.401   0.749
  537SOL    HW2 2147   0.159   1.455   0.816
  537SOL     MW 2148   0.106   1.455   0.744
  538SOL     OW 2149   1.622   0.098   0.627
  538SOL    HW1 2150   1.544   0.050   0.653
  538SOL    HW2 2151   1.695   0.041   0.651
  538SOL     MW 2152   1.622   0.089   0.631
  539SOL     OW 2153   1.836   0.720   1.816
  539SOL    HW1 2154   1.826   0.646   1.875
  539SOL    HW2 2155   1.787   0.695   1.737
  539SOL     MW 2156   1.830   0.712   1.814
  540SOL     OW 2157   1.732   2.347   3.122
  540SOL    HW1 2158   1.773   2.264   3.099
  540SOL    HW2 2159   1.685   2.373   3.042
  540SOL     MW 2160   1.730   2.342   3.113
  541SOL     OW 2161   0.985   1.381   1.025
  541SOL    HW1 2162   0.907   1.400   1.078
  541SOL    HW2 2163   0.962   1.413   0.937
  541SOL     MW 2164   0.976   1.386   1.022
  542SOL     OW 2165   2.880   3.076   2.814
  542SOL    HW1 2166   2.946   3.129   2.859
  542SOL    HW2 2167   2.830   3.140   2.762
  542SOL     MW 2168   2.882   3.087   2.813
  543SOL     OW 2169   2.980   0.466   0.351
  543SOL    HW1 2170   3.068   0.445   0.319
  543SOL    HW2 2171   2.926   0.391   0.322
  543SOL     MW 2172   2.983   0.457   0.346
  544SOL     OW 2173   0.733   1.909   0.372
  544SOL    HW1 2174   0.787   1.831   0.368
  544SOL    HW2 2175   0.666   1.890   0.438
  544SOL     MW 2176   0.732   1.901   0.378
  545SOL     OW 2177   3.001   0.513   2.316
  545SOL    HW1 2178   3.081   0.483   2.274
  545SOL    HW2 2179   2.989   0.603   2.285
  545SOL     MW 2180   3.006   0.518   2.309
  546SOL     OW 2181   1.084   1.388   1.634
  546SOL    HW1 2182   1.037   1.404   1.553
  546SOL    HW2 2183   1.175   1.412   1.615
  546SOL     MW 2184   1.088   1.393   1.626
  547SOL     OW 2185   0.047   1.609   0.504
  547SOL    HW1 2186   0.116   1.643   0.447
  547SOL    HW2 2187   0.052   1.663   0.583
  547SOL     MW 2188   0.053   1.617   0.506
  548SOL     OW 2189   2.238   0.214   3.053
  548SOL    HW1 2190   2.228   0.286   2.991
  548SOL    HW2 2191   2.173   0.231   3.122
  548SOL     MW 2192   2.231   0.221   3.054
  549SOL     OW 2193   1.526   3.072   2.915
  549SOL    HW1 2194   1.510   3.140   2.850
  549SOL    HW2 2195   1.466   3.094   2.987
  549SOL     MW 2196   1.519   3.079   2.916
  550SOL     OW 2197   1.668   1.463   2.330
  550SOL    HW1 2198   1.658   1.557   2.338
  550SOL    HW2 2199   1.697   1.434   2.417
  550SOL     MW 2200   1.669   1.468   2.338
  551SOL     OW 2201   2.980   0.564   1.676
  551SOL    HW1 2202   3.061   0.568   1.627
  551SOL    HW2 2203   3.003   0.595   1.764
  551SOL     MW 2204   2.989   0.568   1.679
  552SOL     OW 2205   1.147   0.532   3.122
  552SOL    HW1 2206   1.208   0.605   3.114
  552SOL    HW2 2207   1.198   0.455   3.098
  552SOL     MW 2208   1.157   0.531   3.120
  553SOL     OW 2209   0.463   1.678   2.085
  553SOL    HW1 2210   0.437   1.685   1.994
  553SOL    HW2 2211   0.531   1.610   2.085
  553SOL     MW 2212   0.468   1.673   2.077
  554SOL     OW 2213   1.038   1.879   2.115
  554SOL    HW1 2214   1.129   1.902   2.132
  554SOL    HW2 2215   0.987   1.932   2.178
  554SOL     MW 2216   1.041   1.886   2.122
  555SOL     OW 2217   0.884   1.217   1.961
  555SOL    HW1 2218   0.805   1.252   2.002
  555SOL    HW2 2219   0.922   1.158   2.027
  555SOL     MW 2220   0.880   1.214   1.970
  556SOL     OW 2221   2.854   0.533   0.711
  556SOL    HW1 2222   2.796   0.596   0.668
  556SOL    HW2 2223   2.798   0.491   0.777
  556SOL     MW 2224   2.843   0.534   0.713
  557SOL     OW 2225   0.809   2.436   1.482
  557SOL    HW1 2226   0.891   2.431   1.531
  557SOL    HW2 2227   0.827   2.389   1.400
  557SOL     MW 2228   0.817   2.431   1.479
  558SOL     OW 2229   2.036   1.727   2.216
  558SOL    HW1 2230   2.057   1.766   2.300
  558SOL    HW2 2231   2.060   1.634   2.226
  558SOL     MW 2232   2.040   1.721   2.224
  559SOL     OW 2233   2.905   2.709   1.659
  559SOL    HW1 2234   2.998   2.706   1.680
  559SOL    HW2 2235   2.902   2.715   1.563
  559SOL     MW 2236   2.913   2.709   1.652
  560SOL     OW 2237   2.331   1.608   1.627
  560SOL    HW1 2238   2.243   1.600   1.663
  560SOL    HW2 2239   2.337   1.535   1.564
  560SOL     MW 2240   2.324   1.601   1.624
  561SOL     OW 2241   1.295   0.214   0.615
  561SOL    HW1 2242   1.268   0.150   0.681
  561SOL    HW2 2243   1.381   0.244   0.644
  561SOL     MW 2244   1.301   0.210   0.623
  562SOL     OW 2245   0.513   0.816   1.162
  562SOL    HW1 2246   0.570   0.791   1.235
  562SOL    HW2 2247   0.449   0.744   1.156
  562SOL     MW 2248   0.511   0.808   1.168
  563SOL     OW 2249   1.629   3.111   0.757
  563SOL    HW1 2250   1.693   3.089   0.690
  563SOL    HW2 2251   1.642   3.044   0.825
  563SOL     MW 2252   1.636   3.103   0.757
  564SOL     OW 2253   1.104   3.003   2.281
  564SOL    HW1 2254   1.127   3.034   2.368
  564SOL    HW2 2255   1.180   2.950   2.254
  564SOL     MW 2256   1.113   3.000   2.286
  565SOL     OW 2257   2.163   1.127   0.941
  565SOL    HW1 2258   2.083   1.132   0.888
  565SOL    HW2 2259   2.142   1.063   1.010
  565SOL     MW 2260   2.154   1.121   0.942
  566SOL     OW 2261   2.175   0.775   1.486
  566SOL    HW1 2262   2.177   0.791   1.580
  566SOL    HW2 2263   2.110   0.705   1.474
  566SOL     MW 2264   2.169   0.771   1.493
  567SOL     OW 2265   1.678   0.293   1.584
  567SOL    HW1 2266   1.768   0.295   1.616
  567SOL    HW2 2267   1.635   0.227   1.640
  567SOL     MW 2268   1.682   0.287   1.593
  568SOL     OW 2269   0.443   0.651   2.335
  568SOL    HW1 2270   0.350   0.631   2.325
  568SOL    HW2 2271   0.487   0.565   2.334
  568SOL     MW 2272   0.439   0.641   2.333
  569SOL     OW 2273   0.737   1.456   0.887
  569SOL    HW1 2274   0.784   1.532   0.855
  569SOL    HW2 2275   0.705   1.483   0.975
  569SOL     MW 2276   0.737   1.466   0.892
  570SOL     OW 2277   2.688   2.917   1.749
  570SOL    HW1 2278   2.764   2.921   1.807
  570SOL    HW2 2279   2.625   2.979   1.788
  570SOL     MW 2280   2.689   2.923   1.757
  571SOL     OW 2281   2.233   1.624   0.310
  571SOL    HW1 2282   2.287   1.546   0.320
  571SOL    HW2 2283   2.174   1.603   0.237
  571SOL     MW 2284   2.232   1.615   0.305
  572SOL     OW 2285   2.455   1.622   1.195
  572SOL    HW1 2286   2.480   1.708   1.228
  572SOL    HW2 2287   2.516   1.604   1.123
  572SOL     MW 2288   2.463   1.627   1.192
  573SOL     OW 2289   0.028   0.833   0.308
  573SOL    HW1 2290   0.042   0.925   0.288
  573SOL    HW2 2291   0.017   0.791   0.222
  573SOL     MW 2292   0.029   0.837   0.299
  574SOL     OW 2293   1.188   2.188   2.503
  574SOL    HW1 2294   1.275   2.227   2.494
  574SOL    HW2 2295   1.137   2.254   2.552
  574SOL     MW 2296   1.191   2.198   2.506
  575SOL     OW 2297   2.156   2.208   2.952
  575SOL    HW1 2298   2.079   2.177   3.000
  575SOL    HW2 2299   2.122   2.269   2.887
  575SOL     MW 2300   2.146   2.211   2.951
  576SOL     OW 2301   1.786   1.017   0.432
  576SOL    HW1 2302   1.853   1.050   0.492
  576SOL    HW2 2303   1.836   0.981   0.358
  576SOL     MW 2304   1.796   1.016   0.431
  577SOL     OW 2305   1.359   1.016   2.512
  577SOL    HW1 2306   1.375   1.107   2.487
  577SOL    HW2 2307   1.284   1.021   2.572
  577SOL     MW 2308   1.353   1.024   2.515
  578SOL     OW 2309   2.667   1.302   1.439
  578SOL    HW1 2310   2.658   1.362   1.366
  578SOL    HW2 2311   2.760   1.304   1.461
  578SOL     MW 2312   2.674   1.307   1.435
  579SOL     OW 2313   0.807   0.925   2.353
  579SOL    HW1 2314   0.831   0.837   2.381
  579SOL    HW2 2315   0.767   0.913   2.267
  579SOL     MW 2316   0.805   0.916   2.348
  580SOL     OW 2317   1.491   1.698   2.164
  580SOL    HW1 2318   1.482   1.658   2.251
  580SOL    HW2 2319   1.580   1.733   2.163
  580SOL     MW 2320   1.498   1.697   2.171
  581SOL     OW 2321   0.057   0.039   2.484
  581SOL    HW1 2322  -0.019   0.067   2.535
  581SOL    HW2 2323   0.067   0.107   2.417
  581SOL     MW 2324   0.051   0.048   2.483
  582SOL     OW 2325   2.121   3.019   0.141
  582SOL    HW1 2326   2.180   2.970   0.085
  582SOL    HW2 2327   2.178   3.081   0.189
  582SOL     MW 2328   2.131   3.021   0.140
  583SOL     OW 2329   2.102   0.521   2.708
  583SOL    HW1 2330   2.127   0.596   2.655
  583SOL    HW2 2331   2.061   0.559   2.786
  583SOL     MW 2332   2.100   0.531   2.710
  584SOL     OW 2333   1.949   1.813   1.086
  584SOL    HW1 2334   2.003   1.747   1.130
  584SOL    HW2 2335   1.909   1.767   1.012
  584SOL     MW 2336   1.949   1.803   1.084
  585SOL     OW 2337   2.190   0.675   0.097
  585SOL    HW1 2338   2.212   0.738   0.029
  585SOL    HW2 2339   2.213   0.590   0.059
  585SOL     MW 2340   2.195   0.673   0.088
  586SOL     OW 2341   0.942   0.205   2.205
  586SOL    HW1 2342   0.911   0.212   2.295
  586SOL    HW2 2343   0.958   0.111   2.193
  586SOL     MW 2344   0.940   0.197   2.212
  587SOL     OW 2345   0.354   2.995   2.976
  587SOL    HW1 2346   0.259   3.004   2.966
  587SOL    HW2 2347   0.391   3.068   2.925
  587SOL     MW 2348   0.349   3.003   2.971
  588SOL     OW 2349   2.929   1.262   2.860
  588SOL    HW1 2350   2.914   1.329   2.794
  588SOL    HW2 2351   2.845   1.255   2.907
  588SOL     MW 2352   2.920   1.267   2.858
  589SOL     OW 2353   0.942   0.259   1.831
  589SOL    HW1 2354   0.949   0.166   1.848
  589SOL    HW2 2355   0.868   0.267   1.770
  589SOL     MW 2356   0.935   0.252   1.828
  590SOL     OW 2357   2.927   2.841   1.931
  590SOL    HW1 2358   2.937   2.759   1.884
  590SOL    HW2 2359   2.994   2.838   2.000
  590SOL     MW 2360   2.934   2.834   1.933
  591SOL     OW 2361   1.345   1.859   2.203
  591SOL    HW1 2362   1.347   1.889   2.112
  591SOL    HW2 2363   1.420   1.902   2.245
  591SOL     MW 2364   1.352   1.866   2.199
  592SOL     OW 2365   1.386   2.550   0.811
  592SOL    HW1 2366   1.356   2.489   0.877
  592SOL    HW2 2367   1.329   2.535   0.735
  592SOL     MW 2368   1.378   2.544   0.810
  593SOL     OW 2369  -0.012   0.383   2.266
  593SOL    HW1 2370  -0.019   0.465   2.314
  593SOL    HW2 2371   0.047   0.329   2.319
  593SOL     MW 2372  -0.008   0.385   2.275
  594SOL     OW 2373   2.232   0.576   1.653
  594SOL    HW1 2374   2.138   0.590   1.660
  594SOL    HW2 2375   2.240   0.488   1.613
  594SOL     MW 2376   2.224   0.569   1.649
  595SOL     OW 2377   0.928   1.660   1.930
  595SOL    HW1 2378   0.856   1.607   1.965
  595SOL    HW2 2379   0.894   1.695   1.847
  595SOL     MW 2380   0.919   1.659   1.926
  596SOL     OW 2381   0.065   1.889   0.387
  596SOL    HW1 2382   0.014   1.957   0.343
  596SOL    HW2 2383  -0.000   1.828   0.422
  596SOL     MW 2384   0.055   1.889   0.386
  597SOL     OW 2385   2.216   2.044   0.622
  597SOL    HW1 2386   2.307   2.049   0.649
  597SOL    HW2 2387   2.199   2.129   0.580
  597SOL     MW 2388   2.222   2.052   0.620
  598SOL     OW 2389   1.482   2.149   0.462
  598SOL    HW1 2390   1.492   2.168   0.555
  598SOL    HW2 2391   1.566   2.112   0.435
  598SOL     MW 2392   1.490   2.147   0.468
  599SOL     OW 2393   2.799   1.602   1.639
  599SOL    HW1 2394   2.751   1.520   1.635
  599SOL    HW2 2395   2.842   1.602   1.725
  599SOL     MW 2396   2.799   1.595   1.646
  600SOL     OW 2397   1.695   1.765   2.667
  600SOL    HW1 2398   1.679   1.723   2.583
  600SOL    HW2 2399   1.615   1.748   2.718
  600SOL     MW 2400   1.686   1.759   2.665
  601SOL     OW 2401   0.985   2.563   0.705
  601SOL    HW1 2402   0.939   2.647   0.715
  601SOL    HW2 2403   0.943   2.505   0.770
  601SOL     MW 2404   0.976   2.565   0.711
  602SOL     OW 2405   2.857   0.636   0.242
  602SOL    HW1 2406   2.856   0.555   0.192
  602SOL    HW2 2407   2.950   0.661   0.244
  602SOL     MW 2408   2.866   0.632   0.238
  603SOL     OW 2409   2.907   2.886   0.170
  603SOL    HW1 2410   2.982   2.827   0.168
  603SOL    HW2 2411   2.944   2.973   0.154
  603SOL     MW 2412   2.916   2.889   0.168
  604SOL     OW 2413   0.165   2.693   2.158
  604SOL    HW1 2414   0.161   2.714   2.065
  604SOL    HW2 2415   0.076   2.662   2.179
  604SOL     MW 2416   0.157   2.691   2.151
  605SOL     OW 2417   0.210   1.179   0.832
  605SOL    HW1 2418   0.290   1.224   0.860
  605SOL    HW2 2419   0.139   1.239   0.856
  605SOL     MW 2420   0.211   1.189   0.836
  606SOL     OW 2421   0.647   1.894   0.690
  606SOL    HW1 2422   0.625   1.810   0.649
  606SOL    HW2 2423   0.734   1.916   0.654
  606SOL     MW 2424   0.653   1.889   0.682
  607SOL     OW 2425   1.454   2.289   3.046
  607SOL    HW1 2426   1.493   2.238   2.976
  607SOL    HW2 2427   1.508   2.271   3.123
  607SOL     MW 2428   1.463   2.284   3.047
  608SOL     OW 2429   0.423   1.989   1.082
  608SOL    HW1 2430   0.390   2.072   1.114
  608SOL    HW2 2431   0.439   2.004   0.988
  608SOL     MW 2432   0.422   1.997   1.076
  609SOL     OW 2433   0.651   2.036   0.905
  609SOL    HW1 2434   0.706   2.028   0.983
  609SOL    HW2 2435   0.713   2.059   0.835
  609SOL     MW 2436   0.662   2.037   0.906
  610SOL     OW 2437   1.472   1.966   0.077
  610SOL    HW1 2438   1.514   2.041   0.119
  610SOL    HW2 2439   1.541   1.927   0.023
  610SOL     MW 2440   1.482   1.969   0.076
  611SOL     OW 2441   3.035   1.542   2.594
  611SOL    HW1 2442   3.081   1.491   2.527
  611SOL    HW2 2443   2.995   1.475   2.651
  611SOL     MW 2444   3.036   1.531   2.594
  612SOL     OW 2445   1.376   3.044   2.215
  612SOL    HW1 2446   1.457   3.017   2.173
  612SOL    HW2 2447   1.379   3.140   2.215
  612SOL     MW 2448   1.383   3.050   2.211
  613SOL     OW 2449   2.859   2.292   2.103
  613SOL    HW1 2450   2.849   2.273   2.010
  613SOL    HW2 2451   2.942   2.251   2.128
  613SOL     MW 2452   2.866   2.288   2.097
  614SOL     OW 2453   2.254   1.826   3.013
  614SOL    HW1 2454   2.254   1.905   3.066
  614SOL    HW2 2455   2.193   1.845   2.941
  614SOL     MW 2456   2.249   1.835   3.011
  615SOL     OW 2457   2.639   1.993   2.583
  615SOL    HW1 2458   2.577   1.937   2.629
  615SOL    HW2 2459   2.707   1.933   2.552
  615SOL     MW 2460   2.639   1.983   2.584
  616SOL     OW 2461   2.264   3.140   1.540
  616SOL    HW1 2462   2.360   3.136   1.537
  616SOL    HW2 2463   2.235   3.070   1.481
  616SOL     MW 2464   2.270   3.133   1.535
  617SOL     OW 2465   1.501   1.921   0.641
  617SOL    HW1 2466   1.461   1.994   0.687
  617SOL    HW2 2467   1.506   1.851   0.707
  617SOL     MW 2468   1.497   1.921   0.650
  618SOL     OW 2469   2.171   2.442   0.723
  618SOL    HW1 2470   2.171   2.394   0.805
  618SOL    HW2 2471   2.258   2.485   0.720
  618SOL     MW 2472   2.179   2.442   0.729
  619SOL     OW 2473   0.637   2.090   2.992
  619SOL    HW1 2474   0.675   2.037   3.062
  619SOL    HW2 2475   0.652   2.181   3.020
  619SOL     MW 2476   0.642   2.094   3.000
  620SOL     OW 2477   0.358   0.508   1.629
  620SOL    HW1 2478   0.449   0.538   1.626
  620SOL    HW2 2479   0.309   0.573   1.577
  620SOL     MW 2480   0.362   0.516   1.624
  621SOL     OW 2481   0.737   0.470   0.221
  621SOL    HW1 2482   0.654   0.470   0.268
  621SOL    HW2 2483   0.721   0.529   0.146
  621SOL     MW 2484   0.728   0.476   0.218
  622SOL     OW 2485   1.682   1.685   0.104
  622SOL    HW1 2486   1.750   1.657   0.164
  622SOL    HW2 2487   1.701   1.638   0.022
  622SOL     MW 2488   1.689   1.678   0.102
  623SOL     OW 2489   0.056   2.287   1.597
  623SOL    HW1 2490  -0.019   2.338   1.567
  623SOL    HW2 2491   0.132   2.342   1.580
  623SOL     MW 2492   0.056   2.296   1.594
  624SOL     OW 2493   1.712   1.275   2.855
  624SOL    HW1 2494   1.682   1.267   2.765
  624SOL    HW2 2495   1.734   1.185   2.882
  624SOL     MW 2496   1.712   1.266   2.850
  625SOL     OW 2497   2.080   1.114   2.379
  625SOL    HW1 2498   1.995   1.099   2.338
  625SOL    HW2 2499   2.088   1.045   2.445
  625SOL     MW 2500   2.074   1.106   2.381
  626SOL     OW 2501   0.759   2.761   1.060
  626SOL    HW1 2502   0.838   2.709   1.046
  626SOL    HW2 2503   0.738   2.796   0.973
  626SOL     MW 2504   0.763   2.759   1.050
  627SOL     OW 2505   0.672   2.310   1.894
  627SOL    HW1 2506   0.727   2.303   1.816
  627SOL    HW2 2507   0.731   2.286   1.966
  627SOL     MW 2508   0.683   2.308   1.894
  628SOL     OW 2509   2.282   3.138   2.636
  628SOL    HW1 2510   2.226   3.115   2.709
  628SOL    HW2 2511   2.354   3.075   2.639
  628SOL     MW 2512   2.283   3.130   2.642
  629SOL     OW 2513   1.455   1.044   1.708
  629SOL    HW1 2514   1.523   1.103   1.743
  629SOL    HW2 2515   1.389   1.041   1.778
  629SOL     MW 2516   1.455   1.050   1.717
  630SOL     OW 2517   0.103   1.319   0.554
  630SOL    HW1 2518   0.183   1.302   0.603
  630SOL    HW2 2519   0.079   1.233   0.517
  630SOL     MW 2520   0.108   1.310   0.555
  631SOL     OW 2521   2.485   2.442   0.604
  631SOL    HW1 2522   2.569   2.450   0.559
  631SOL    HW2 2523   2.444   2.528   0.593
  631SOL     MW 2524   2.489   2.450   0.598
  632SOL     OW 2525   2.016   2.163   2.648
  632SOL    HW1 2526   1.988   2.217   2.721
  632SOL    HW2 2527   2.056   2.085   2.688
  632SOL     MW 2528   2.017   2.160   2.658
  633SOL     OW 2529   0.346   2.892   2.541
  633SOL    HW1 2530   0.359   2.798   2.533
  633SOL    HW2 2531   0.426   2.925   2.583
  633SOL     MW 2532   0.354   2.887   2.544
  634SOL     OW 2533   1.838   0.235   1.118
  634SOL    HW1 2534   1.906   0.207   1.178
  634SOL    HW2 2535   1.861   0.326   1.095
  634SOL     MW 2536   1.846   0.241   1.121
  635SOL     OW 2537   2.986   2.947   0.678
  635SOL    HW1 2538   3.071   2.912   0.703
  635SOL    HW2 2539   2.928   2.870   0.673
  635SOL     MW 2540   2.988   2.937   0.681
  636SOL     OW 2541   1.796   2.240   1.054
  636SOL    HW1 2542   1.724   2.235   1.116
  636SOL    HW2 2543   1.754   2.258   0.969
  636SOL     MW 2544   1.786   2.242   1.051
  637SOL     OW 2545   2.410   0.386   0.747
  637SOL    HW1 2546   2.434   0.468   0.789
  637SOL    HW2 2547   2.490   0.359   0.701
  637SOL     MW 2548   2.420   0.390   0.747
  638SOL     OW 2549   2.352   2.019   2.608
  638SOL    HW1 2550   2.277   1.999   2.665
  638SOL    HW2 2551   2.319   2.002   2.519
  638SOL     MW 2552   2.342   2.016   2.605
  639SOL     OW 2553   1.351   2.572   0.519
  639SOL    HW1 2554   1.374   2.656   0.557
  639SOL    HW2 2555   1.417   2.557   0.450
  639SOL     MW 2556   1.359   2.578   0.517
  640SOL     OW 2557   1.658   1.199   1.310
  640SOL    HW1 2558   1.704   1.129   1.356
  640SOL    HW2 2559   1.722   1.233   1.247
  640SOL     MW 2560   1.668   1.195   1.308
  641SOL     OW 2561   1.026   1.797   1.403
  641SOL    HW1 2562   1.013   1.888   1.430
  641SOL    HW2 2563   0.964   1.747   1.456
  641SOL     MW 2564   1.019   1.800   1.409
  642SOL     OW 2565   0.028   0.086   2.126
  642SOL    HW1 2566   0.041   0.140   2.048
  642SOL    HW2 2567   0.112   0.040   2.137
  642SOL     MW 2568   0.037   0.087   2.121
  643SOL     OW 2569   1.237   2.150   2.292
  643SOL    HW1 2570   1.153   2.143   2.248
  643SOL    HW2 2571   1.263   2.060   2.311
  643SOL     MW 2572   1.233   2.142   2.289
  644SOL     OW 2573   2.638   1.386   2.596
  644SOL    HW1 2574   2.568   1.434   2.641
  644SOL    HW2 2575   2.664   1.318   2.659
  644SOL     MW 2576   2.634   1.383   2.606
  645SOL     OW 2577   1.190   0.249   1.884
  645SOL    HW1 2578   1.270   0.209   1.850
  645SOL    HW2 2579   1.205   0.343   1.876
  645SOL     MW 2580   1.198   0.254   1.880
  646SOL     OW 2581   2.057   0.631   1.972
  646SOL    HW1 2582   2.066   0.579   2.051
  646SOL    HW2 2583   2.030   0.567   1.904
  646SOL     MW 2584   2.054   0.621   1.973
  647SOL     OW 2585   0.415   3.065   2.322
  647SOL    HW1 2586   0.462   3.046   2.403
  647SOL    HW2 2587   0.462   3.140   2.284
  647SOL     MW 2588   0.424   3.070   2.325
  648SOL     OW 2589   2.437   2.425   1.490
  648SOL    HW1 2590   2.369   2.440   1.555
  648SOL    HW2 2591   2.455   2.330   1.495
  648SOL     MW 2592   2.433   2.417   1.496
  649SOL     OW 2593   0.087   0.653   0.452
  649SOL    HW1 2594   0.181   0.672   0.456
  649SOL    HW2 2595   0.075   0.609   0.367
  649SOL     MW 2596   0.094   0.650   0.445
  650SOL     OW 2597   1.156   0.470   1.137
  650SOL    HW1 2598   1.133   0.518   1.216
  650SOL    HW2 2599   1.072   0.453   1.093
  650SOL     MW 2600   1.147   0.473   1.140
  651SOL     OW 2601   1.490   1.392   2.749
  651SOL    HW1 2602   1.552   1.457   2.717
  651SOL    HW2 2603   1.471   1.419   2.839
  651SOL     MW 2604   1.493   1.400   2.754
  652SOL     OW 2605   0.065   2.462   1.406
  652SOL    HW1 2606  -0.019   2.468   1.361
  652SOL    HW2 2607   0.130   2.486   1.339
  652SOL     MW 2608   0.064   2.466   1.396
  653SOL     OW 2609   0.755   0.653   1.508
  653SOL    HW1 2610   0.799   0.659   1.593
  653SOL    HW2 2611   0.816   0.696   1.447
  653SOL     MW 2612   0.765   0.656   1.510
  654SOL     OW 2613   2.517   2.578   0.259
  654SOL    HW1 2614   2.491   2.497   0.302
  654SOL    HW2 2615   2.472   2.575   0.174
  654SOL     MW 2616   2.510   2.571   0.255
  655SOL     OW 2617   1.619   1.477   3.040
  655SOL    HW1 2618   1.603   1.564   3.004
  655SOL    HW2 2619   1.568   1.475   3.122
  655SOL     MW 2620   1.612   1.484   3.044
  656SOL     OW 2621   0.722   0.454   2.299
  656SOL    HW1 2622   0.699   0.362   2.308
  656SOL    HW2 2623   0.797   0.466   2.358
  656SOL     MW 2624   0.727   0.447   2.305
  657SOL     OW 2625   0.448   0.450   0.100
  657SOL    HW1 2626   0.485   0.377   0.148
  657SOL    HW2 2627   0.480   0.529   0.146
  657SOL     MW 2628   0.454   0.451   0.107
  658SOL     OW 2629   2.620   2.288   2.704
  658SOL    HW1 2630   2.539   2.289   2.754
  658SOL    HW2 2631   2.601   2.341   2.626
  658SOL     MW 2632   2.612   2.293   2.701
  659SOL     OW 2633   2.142   3.008   1.671
  659SOL    HW1 2634   2.073   2.987   1.609
  659SOL    HW2 2635   2.153   2.928   1.723
  659SOL     MW 2636   2.138   2.999   1.670
  660SOL     OW 2637   0.945   1.874   1.654
  660SOL    HW1 2638   0.910   1.953   1.613
  660SOL    HW2 2639   0.869   1.816   1.661
  660SOL     MW 2640   0.935   1.875   1.650
  661SOL     OW 2641   0.585   0.128   0.847
  661SOL    HW1 2642   0.664   0.176   0.872
  661SOL    HW2 2643   0.617   0.058   0.790
  661SOL     MW 2644   0.595   0.126   0.844
  662SOL     OW 2645   2.382   2.639   1.648
  662SOL    HW1 2646   2.291   2.628   1.675
  662SOL    HW2 2647   2.386   2.727   1.611
  662SOL     MW 2648   2.375   2.646   1.648
  663SOL     OW 2649   1.564   0.312   0.081
  663SOL    HW1 2650   1.614   0.252   0.026
  663SOL    HW2 2651   1.512   0.255   0.138
  663SOL     MW 2652   1.564   0.302   0.082
  664SOL     OW 2653   1.657   2.972   1.117
  664SOL    HW1 2654   1.722   3.027   1.158
  664SOL    HW2 2655   1.686   2.964   1.025
  664SOL     MW 2656   1.666   2.975   1.112
  665SOL     OW 2657   1.207   1.054   2.210
  665SOL    HW1 2658   1.251   0.974   2.181
  665SOL    HW2 2659   1.255   1.081   2.289
  665SOL     MW 2660   1.216   1.050   2.214
  666SOL     OW 2661   0.635   1.068   1.705
  666SOL    HW1 2662   0.594   1.139   1.656
  666SOL    HW2 2663   0.586   1.064   1.788
  666SOL     MW 2664   0.627   1.073   1.708
  667SOL     OW 2665   2.721   2.321   3.122
  667SOL    HW1 2666   2.630   2.291   3.121
  667SOL    HW2 2667   2.773   2.240   3.112
  667SOL     MW 2668   2.717   2.311   3.120
  668SOL     OW 2669   2.338   0.722   2.671
  668SOL    HW1 2670   2.338   0.778   2.593
  668SOL    HW2 2671   2.322   0.783   2.744
  668SOL     MW 2672   2.336   0.732   2.671
  669SOL     OW 2673   1.917   1.674   2.448
  669SOL    HW1 2674   1.834   1.627   2.449
  669SOL    HW2 2675   1.892   1.767   2.450
  669SOL     MW 2676   1.908   1.679   2.449
  670SOL     OW 2677   2.480   1.249   2.179
  670SOL    HW1 2678   2.430   1.322   2.145
  670SOL    HW2 2679   2.506   1.199   2.101
  670SOL     MW 2680   2.479   1.251   2.169
  671SOL     OW 2681   0.928   2.408   0.191
  671SOL    HW1 2682   0.934   2.319   0.224
  671SOL    HW2 2683   0.859   2.404   0.124
  671SOL     MW 2684   0.922   2.400   0.188
  672SOL     OW 2685   0.569   1.782   0.931
  672SOL    HW1 2686   0.501   1.823   0.879
  672SOL    HW2 2687   0.635   1.753   0.867
  672SOL     MW 2688   0.570   1.783   0.921
  673SOL     OW 2689   0.637   1.101   1.375
  673SOL    HW1 2690   0.652   1.016   1.414
  673SOL    HW2 2691   0.725   1.135   1.355
  673SOL     MW 2692   0.646   1.097   1.376
  674SOL     OW 2693   2.716   0.724   2.542
  674SOL    HW1 2694   2.705   0.816   2.520
  674SOL    HW2 2695   2.685   0.677   2.463
  674SOL     MW 2696   2.713   0.727   2.533
  675SOL     OW 2697   2.263   0.165   0.663
  675SOL    HW1 2698   2.278   0.108   0.739
  675SOL    HW2 2699   2.187   0.218   0.688
  675SOL     MW 2700   2.258   0.165   0.672
  676SOL     OW 2701   2.875   2.494   2.678
  676SOL    HW1 2702   2.856   2.506   2.771
  676SOL    HW2 2703   2.903   2.402   2.671
  676SOL     MW 2704   2.875   2.487   2.685
  677SOL     OW 2705   2.766   1.079   0.698
  677SOL    HW1 2706   2.857   1.063   0.671
  677SOL    HW2 2707   2.773   1.144   0.768
  677SOL     MW 2708   2.775   1.084   0.701
  678SOL     OW 2709   2.569   0.809   1.250
  678SOL    HW1 2710   2.552   0.887   1.302
  678SOL    HW2 2711   2.625   0.840   1.178
  678SOL     MW 2712   2.573   0.818   1.248
  679SOL     OW 2713   1.568   3.022   2.465
  679SOL    HW1 2714   1.621   2.971   2.526
  679SOL    HW2 2715   1.613   3.014   2.380
  679SOL     MW 2716   1.576   3.017   2.462
  680SOL     OW 2717   0.214   0.219   0.418
  680SOL    HW1 2718   0.261   0.171   0.485
  680SOL    HW2 2719   0.196   0.153   0.350
  680SOL     MW 2720   0.216   0.209   0.418
  681SOL     OW 2721   2.188   0.443   2.209
  681SOL    HW1 2722   2.276   0.474   2.224
  681SOL    HW2 2723   2.190   0.407   2.120
  681SOL     MW 2724   2.196   0.442   2.202
  682SOL     OW 2725   0.369   2.743   0.434
  682SOL    HW1 2726   0.363   2.657   0.476
  682SOL    HW2 2727   0.284   2.784   0.449
  682SOL     MW 2728   0.361   2.739   0.439
  683SOL     OW 2729   0.879   1.253   1.578
  683SOL    HW1 2730   0.868   1.182   1.515
  683SOL    HW2 2731   0.806   1.242   1.639
  683SOL     MW 2732   0.872   1.245   1.578
  684SOL     OW 2733   2.018   1.162   0.676
  684SOL    HW1 2734   2.023   1.156   0.581
  684SOL    HW2 2735   1.926   1.143   0.696
  684SOL     MW 2736   2.010   1.159   0.669
  685SOL     OW 2737   2.757   0.668   2.031
  685SOL    HW1 2738   2.779   0.707   1.947
  685SOL    HW2 2739   2.677   0.618   2.014
  685SOL     MW 2740   2.752   0.666   2.022
  686SOL     OW 2741   0.966   1.137   0.211
  686SOL    HW1 2742   1.048   1.115   0.169
  686SOL    HW2 2743   0.986   1.216   0.263
  686SOL     MW 2744   0.974   1.143   0.212
  687SOL     OW 2745   2.663   1.555   0.650
  687SOL    HW1 2746   2.581   1.507   0.660
  687SOL    HW2 2747   2.709   1.541   0.733
  687SOL     MW 2748   2.660   1.549   0.658
  688SOL     OW 2749   2.078   1.471   0.502
  688SOL    HW1 2750   2.053   1.556   0.537
  688SOL    HW2 2751   2.042   1.470   0.413
  688SOL     MW 2752   2.073   1.478   0.497
  689SOL     OW 2753   1.125   2.737   0.638
  689SOL    HW1 2754   1.195   2.794   0.671
  689SOL    HW2 2755   1.158   2.702   0.555
  689SOL     MW 2756   1.134   2.739   0.634
  690SOL     OW 2757   2.538   1.861   0.077
  690SOL    HW1 2758   2.492   1.823   0.151
  690SOL    HW2 2759   2.469   1.899   0.021
  690SOL     MW 2760   2.528   1.862   0.078
  691SOL     OW 2761   0.847   1.458   0.107
  691SOL    HW1 2762   0.877   1.532   0.054
  691SOL    HW2 2763   0.795   1.498   0.177
  691SOL     MW 2764   0.845   1.468   0.108
  692SOL     OW 2765   3.015   2.061   0.760
  692SOL    HW1 2766   2.978   2.149   0.764
  692SOL    HW2 2767   3.082   2.067   0.690
  692SOL     MW 2768   3.019   2.069   0.754
  693SOL     OW 2769   2.050   2.841   1.295
  693SOL    HW1 2770   2.032   2.748   1.284
  693SOL    HW2 2771   1.974   2.885   1.256
  693SOL     MW 2772   2.041   2.837   1.291
  694SOL     OW 2773   3.007   0.837   1.020
  694SOL    HW1 2774   3.081   0.802   0.971
  694SOL    HW2 2775   2.946   0.867   0.951
  694SOL     MW 2776   3.007   0.836   1.009
  695SOL     OW 2777   0.264   2.599   1.824
  695SOL    HW1 2778   0.323   2.663   1.862
  695SOL    HW2 2779   0.300   2.514   1.850
  695SOL     MW 2780   0.272   2.597   1.830
  696SOL     OW 2781   2.635   2.648   0.719
  696SOL    HW1 2782   2.622   2.654   0.625
  696SOL    HW2 2783   2.547   2.635   0.755
  696SOL     MW 2784   2.626   2.647   0.714
  697SOL     OW 2785   0.639   3.080   1.567
  697SOL    HW1 2786   0.728   3.074   1.602
  697SOL    HW2 2787   0.647   3.052   1.475
  697SOL     MW 2788   0.647   3.076   1.562
  698SOL     OW 2789   0.969   1.993   0.849
  698SOL    HW1 2790   0.911   1.917   0.839
  698SOL    HW2 2791   1.045   1.958   0.897
  698SOL     MW 2792   0.971   1.983   0.852
  699SOL     OW 2793   2.288   2.781   0.933
  699SOL    HW1 2794   2.270   2.758   1.024
  699SOL    HW2 2795   2.258   2.704   0.883
  699SOL     MW 2796   2.284   2.772   0.936
  700SOL     OW 2797   0.638   0.559   0.904
  700SOL    HW1 2798   0.568   0.496   0.921
  700SOL    HW2 2799   0.717   0.514   0.935
  700SOL     MW 2800   0.639   0.549   0.908
  701SOL     OW 2801   0.273   0.521   2.850
  701SOL    HW1 2802   0.199   0.580   2.857
  701SOL    HW2 2803   0.237   0.434   2.867
  701SOL     MW 2804   0.264   0.518   2.851
  702SOL     OW 2805   1.798   2.356   0.103
  702SOL    HW1 2806   1.752   2.376   0.022
  702SOL    HW2 2807   1.877   2.411   0.101
  702SOL     MW 2808   1.801   2.363   0.096
  703SOL     OW 2809   2.186   0.180   0.068
  703SOL    HW1 2810   2.259   0.139   0.023
  703SOL    HW2 2811   2.188   0.144   0.157
  703SOL     MW 2812   2.193   0.173   0.072
  704SOL     OW 2813   0.728   1.890   2.812
  704SOL    HW1 2814   0.745   1.899   2.905
  704SOL    HW2 2815   0.809   1.852   2.776
  704SOL     MW 2816   0.737   1.887   2.817
  705SOL     OW 2817   2.167   1.137   3.043
  705SOL    HW1 2818   2.086   1.091   3.024
  705SOL    HW2 2819   2.223   1.070   3.085
  705SOL     MW 2820   2.166   1.127   3.045
  706SOL     OW 2821   2.492   2.974   1.227
  706SOL    HW1 2822   2.562   2.909   1.234
  706SOL    HW2 2823   2.535   3.050   1.187
  706SOL     MW 2824   2.502   2.975   1.223
  707SOL     OW 2825   2.170   0.110   1.135
  707SOL    HW1 2826   2.257   0.077   1.114
  707SOL    HW2 2827   2.183   0.205   1.148
  707SOL     MW 2828   2.178   0.116   1.134
  708SOL     OW 2829   0.704   2.877   1.295
  708SOL    HW1 2830   0.795   2.883   1.320
  708SOL    HW2 2831   0.696   2.935   1.219
  708SOL     MW 2832   0.711   2.882   1.290
  709SOL     OW 2833   1.126   2.630   1.798
  709SOL    HW1 2834   1.096   2.683   1.723
  709SOL    HW2 2835   1.046   2.587   1.830
  709SOL     MW 2836   1.116   2.631   1.794
  710SOL     OW 2837   2.692   0.207   0.904
  710SOL    HW1 2838   2.758   0.259   0.950
  710SOL    HW2 2839   2.742   0.160   0.836
  710SOL     MW 2840   2.703   0.207   0.902
  711SOL     OW 2841   2.787   2.038   1.088
  711SOL    HW1 2842   2.784   1.943   1.095
  711SOL    HW2 2843   2.746   2.069   1.170
  711SOL     MW 2844   2.783   2.033   1.096
  712SOL     OW 2845   0.045   2.346   0.924
  712SOL    HW1 2846   0.055   2.434   0.889
  712SOL    HW2 2847   0.072   2.288   0.853
  712SOL     MW 2848   0.049   2.348   0.915
  713SOL     OW 2849   0.867   3.069   2.168
  713SOL    HW1 2850   0.823   3.001   2.219
  713SOL    HW2 2851   0.882   3.140   2.232
  713SOL     MW 2852   0.865   3.069   2.179
  714SOL     OW 2853   2.371   1.811   1.822
  714SOL    HW1 2854   2.463   1.798   1.843
  714SOL    HW2 2855   2.354   1.903   1.843
  714SOL     MW 2856   2.378   1.818   1.825
  715SOL     OW 2857   0.256   1.391   2.677
  715SOL    HW1 2858   0.327   1.386   2.614
  715SOL    HW2 2859   0.299   1.388   2.763
  715SOL     MW 2860   0.266   1.391   2.679
  716SOL     OW 2861   1.314   2.483   2.387
  716SOL    HW1 2862   1.402   2.459   2.358
  716SOL    HW2 2863   1.327   2.560   2.443
  716SOL     MW 2864   1.323   2.488   2.389
  717SOL     OW 2865   1.661   2.037   2.077
  717SOL    HW1 2866   1.700   2.124   2.066
  717SOL    HW2 2867   1.588   2.051   2.139
  717SOL     MW 2868   1.657   2.046   2.082
  718SOL     OW 2869   1.138   1.909   2.416
  718SOL    HW1 2870   1.224   1.871   2.426
  718SOL    HW2 2871   1.090   1.848   2.359
  718SOL     MW 2872   1.140   1.900   2.413
  719SOL     OW 2873   0.084   0.152   1.350
  719SOL    HW1 2874   0.009   0.209   1.333
  719SOL    HW2 2875   0.146   0.172   1.280
  719SOL     MW 2876   0.083   0.159   1.343
  720SOL     OW 2877   0.465   1.125   0.081
  720SOL    HW1 2878   0.538   1.166   0.126
  720SOL    HW2 2879   0.507   1.061   0.022
  720SOL     MW 2880   0.475   1.122   0.080
  721SOL     OW 2881   2.857   1.564   0.412
  721SOL    HW1 2882   2.837   1.473   0.433
  721SOL    HW2 2883   2.933   1.585   0.468
  721SOL     MW 2884   2.863   1.558   0.419
  722SOL     OW 2885   3.038   0.182   0.071
  722SOL    HW1 2886   3.059   0.262   0.023
  722SOL    HW2 2887   2.965   0.144   0.022
  722SOL     MW 2888   3.034   0.185   0.062
  723SOL     OW 2889   2.729   2.400   2.918
  723SOL    HW1 2890   2.726   2.307   2.900
  723SOL    HW2 2891   2.665   2.439   2.857
  723SOL     MW 2892   2.722   2.396   2.911
  724SOL     OW 2893   0.759   2.420   2.920
  724SOL    HW1 2894   0.670   2.405   2.887
  724SOL    HW2 2895   0.791   2.333   2.946
  724SOL     MW 2896   0.754   2.411   2.919
  725SOL     OW 2897   0.340   0.640   0.832
  725SOL    HW1 2898   0.358   0.593   0.751
  725SOL    HW2 2899   0.244   0.649   0.835
  725SOL     MW 2900   0.333   0.636   0.826
  726SOL     OW 2901   2.475   0.567   0.506
  726SOL    HW1 2902   2.518   0.483   0.521
  726SOL    HW2 2903   2.476   0.610   0.593
  726SOL     MW 2904   2.480   0.564   0.515
  727SOL     OW 2905   2.434   0.551   1.244
  727SOL    HW1 2906   2.514   0.598   1.221
  727SOL    HW2 2907   2.396   0.603   1.315
  727SOL     MW 2908   2.437   0.560   1.248
  728SOL     OW 2909   2.445   3.047   2.042
  728SOL    HW1 2910   2.435   3.140   2.061
  728SOL    HW2 2911   2.440   3.004   2.128
  728SOL     MW 2912   2.443   3.051   2.051
  729SOL     OW 2913   2.722   1.858   0.869
  729SOL    HW1 2914   2.680   1.817   0.794
  729SOL    HW2 2915   2.667   1.834   0.944
  729SOL     MW 2916   2.714   1.851   0.869
  730SOL     OW 2917   1.972   0.192   0.650
  730SOL    HW1 2918   1.907   0.262   0.650
  730SOL    HW2 2919   1.935   0.126   0.590
  730SOL     MW 2920   1.963   0.192   0.644
  731SOL     OW 2921   0.426   2.698   1.637
  731SOL    HW1 2922   0.502   2.669   1.588
  731SOL    HW2 2923   0.460   2.762   1.700
  731SOL     MW 2924   0.435   2.702   1.638
  732SOL     OW 2925   3.021   2.077   2.813
  732SOL    HW1 2926   3.060   2.002   2.769
  732SOL    HW2 2927   3.082   2.099   2.884
  732SOL     MW 2928   3.030   2.073   2.815
  733SOL     OW 2929   1.824   2.303   2.887
  733SOL    HW1 2930   1.865   2.219   2.903
  733SOL    HW2 2931   1.886   2.368   2.922
  733SOL     MW 2932   1.833   2.302   2.891
  734SOL     OW 2933   2.022   3.140   2.506
  734SOL    HW1 2934   2.028   3.124   2.599
  734SOL    HW2 2935   1.937   3.102   2.480
  734SOL     MW 2936   2.014   3.136   2.511
  735SOL     OW 2937   3.080   2.462   2.860
  735SOL    HW1 2938   3.025   2.513   2.918
  735SOL    HW2 2939   3.076   2.508   2.776
  735SOL     MW 2940   3.076   2.471   2.858
  736SOL     OW 2941   2.960   1.424   1.780
  736SOL    HW1 2942   2.987   1.442   1.870
  736SOL    HW2 2943   2.901   1.348   1.788
  736SOL     MW 2944   2.956   1.419   1.789
  737SOL     OW 2945   1.184   2.171   0.880
  737SOL    HW1 2946   1.267   2.205   0.911
  737SOL    HW2 2947   1.207   2.109   0.810
  737SOL     MW 2948   1.193   2.168   0.877
  738SOL     OW 2949   0.060   1.807   1.744
  738SOL    HW1 2950  -0.013   1.747   1.729
  738SOL    HW2 2951   0.050   1.875   1.677
  738SOL     MW 2952   0.052   1.808   1.737
  739SOL     OW 2953   2.046   1.146   2.130
  739SOL    HW1 2954   2.097   1.068   2.146
  739SOL    HW2 2955   1.998   1.127   2.048
  739SOL     MW 2956   2.045   1.137   2.124
  740SOL     OW 2957   2.300   3.087   1.219
  740SOL    HW1 2958   2.216   3.108   1.178
  740SOL    HW2 2959   2.281   3.011   1.275
  740SOL     MW 2960   2.291   3.081   1.220
  741SOL     OW 2961   2.780   1.736   0.579
  741SOL    HW1 2962   2.813   1.767   0.495
  741SOL    HW2 2963   2.687   1.762   0.581
  741SOL     MW 2964   2.774   1.741   0.572
  742SOL     OW 2965   0.913   1.010   1.104
  742SOL    HW1 2966   0.830   1.005   1.057
  742SOL    HW2 2967   0.895   1.071   1.177
  742SOL     MW 2968   0.904   1.015   1.107
  743SOL     OW 2969   2.572   0.405   2.383
  743SOL    HW1 2970   2.657   0.395   2.341
  743SOL    HW2 2971   2.515   0.438   2.313
  743SOL     MW 2972   2.574   0.406   2.373
  744SOL     OW 2973   0.555   2.660   2.760
  744SOL    HW1 2974   0.561   2.578   2.809
  744SOL    HW2 2975   0.532   2.726   2.825
  744SOL     MW 2976   0.554   2.659   2.770
  745SOL     OW 2977   3.022   2.478   2.434
  745SOL    HW1 2978   3.082   2.520   2.495
  745SOL    HW2 2979   3.076   2.456   2.357
  745SOL     MW 2980   3.032   2.479   2.432
  746SOL     OW 2981   1.698   2.888   2.941
  746SOL    HW1 2982   1.772   2.919   2.889
  746SOL    HW2 2983   1.687   2.955   3.010
  746SOL     MW 2984   1.703   2.897   2.943
  747SOL     OW 2985   1.006   0.973   1.943
  747SOL    HW1 2986   0.956   0.905   1.989
  747SOL    HW2 2987   1.091   0.975   1.989
  747SOL     MW 2988   1.010   0.967   1.951
  748SOL     OW 2989   2.517   0.290   2.922
  748SOL    HW1 2990   2.548   0.379   2.913
  748SOL    HW2 2991   2.545   0.246   2.841
  748SOL     MW 2992   2.523   0.293   2.914
  749SOL     OW 2993   1.264   1.649   2.216
  749SOL    HW1 2994   1.230   1.658   2.305
  749SOL    HW2 2995   1.202   1.697   2.161
  749SOL     MW 2996   1.256   1.655   2.219
  750SOL     OW 2997   1.142   0.652   1.991
  750SOL    HW1 2998   1.061   0.612   1.958
  750SOL    HW2 2999   1.112   0.731   2.038
  750SOL     MW 3000   1.132   0.655   1.993
  751SOL     OW 3001   0.682   3.004   1.926
  751SOL    HW1 3002   0.673   3.061   1.851
  751SOL    HW2 3003   0.715   3.062   1.996
  751SOL     MW 3004   0.684   3.015   1.926
  752SOL     OW 3005   1.058   0.374   0.222
  752SOL    HW1 3006   1.093   0.457   0.251
  752SOL    HW2 3007   0.963   0.388   0.217
  752SOL     MW 3008   1.052   0.382   0.223
  753SOL     OW 3009   0.065   1.322   2.761
  753SOL    HW1 3010   0.054   1.401   2.813
  753SOL    HW2 3011  -0.019   1.313   2.714
  753SOL     MW 3012   0.056   1.329   2.761
  754SOL     OW 3013   0.362   0.827   2.968
  754SOL    HW1 3014   0.317   0.829   2.884
  754SOL    HW2 3015   0.310   0.767   3.022
  754SOL     MW 3016   0.354   0.822   2.966
  755SOL     OW 3017   1.984   2.280   0.605
  755SOL    HW1 3018   1.957   2.193   0.578
  755SOL    HW2 3019   2.052   2.264   0.672
  755SOL     MW 3020   1.989   2.271   0.609
  756SOL     OW 3021   2.380   2.328   0.886
  756SOL    HW1 3022   2.404   2.338   0.794
  756SOL    HW2 3023   2.319   2.253   0.887
  756SOL     MW 3024   2.377   2.322   0.878
  757SOL     OW 3025   1.796   1.944   2.225
  757SOL    HW1 3026   1.848   1.942   2.145
  757SOL    HW2 3027   1.860   1.954   2.295
  757SOL     MW 3028   1.806   1.946   2.224
  758SOL     OW 3029   2.554   2.088   2.102
  758SOL    HW1 3030   2.550   2.048   2.189
  758SOL    HW2 3031   2.512   2.174   2.113
  758SOL     MW 3032   2.550   2.093   2.111
  759SOL     OW 3033   2.505   2.633   1.010
  759SOL    HW1 3034   2.438   2.595   0.954
  759SOL    HW2 3035   2.458   2.661   1.089
  759SOL     MW 3036   2.495   2.632   1.012
  760SOL     OW 3037   2.531   0.664   2.223
  760SOL    HW1 3038   2.622   0.650   2.246
  760SOL    HW2 3039   2.512   0.594   2.159
  760SOL     MW 3040   2.537   0.656   2.220
  761SOL     OW 3041   1.206   0.696   0.900
  761SOL    HW1 3042   1.170   0.727   0.983
  761SOL    HW2 3043   1.212   0.600   0.910
  761SOL     MW 3044   1.202   0.690   0.907
  762SOL     OW 3045   0.202   0.516   3.068
  762SOL    HW1 3046   0.268   0.473   3.122
  762SOL    HW2 3047   0.167   0.587   3.123
  762SOL     MW 3048   0.205   0.519   3.077
  763SOL     OW 3049   2.457   1.285   1.904
  763SOL    HW1 3050   2.373   1.320   1.932
  763SOL    HW2 3051   2.484   1.341   1.830
  763SOL     MW 3052   2.453   1.293   1.900
  764SOL     OW 3053   2.771   2.502   1.928
  764SOL    HW1 3054   2.808   2.580   1.888
  764SOL    HW2 3055   2.706   2.535   1.991
  764SOL     MW 3056   2.768   2.511   1.930
  765SOL     OW 3057   0.005   0.438   1.931
  765SOL    HW1 3058   0.089   0.398   1.956
  765SOL    HW2 3059  -0.021   0.391   1.851
  765SOL     MW 3060   0.010   0.430   1.926
  766SOL     OW 3061   1.564   0.789   1.977
  766SOL    HW1 3062   1.611   0.718   2.021
  766SOL    HW2 3063   1.543   0.753   1.890
  766SOL     MW 3064   1.566   0.779   1.973
  767SOL     OW 3065   1.361   0.631   1.909
  767SOL    HW1 3066   1.305   0.579   1.852
  767SOL    HW2 3067   1.429   0.570   1.939
  767SOL     MW 3068   1.363   0.621   1.906
  768SOL     OW 3069   2.137   1.606   2.511
  768SOL    HW1 3070   2.162   1.614   2.419
  768SOL    HW2 3071   2.144   1.512   2.530
  768SOL     MW 3072   2.140   1.598   2.505
  769SOL     OW 3073   0.374   2.204   0.895
  769SOL    HW1 3074   0.328   2.198   0.812
  769SOL    HW2 3075   0.466   2.190   0.874
  769SOL     MW 3076   0.378   2.203   0.886
  770SOL     OW 3077   0.551   0.731   1.490
  770SOL    HW1 3078   0.486   0.713   1.422
  770SOL    HW2 3079   0.512   0.802   1.542
  770SOL     MW 3080   0.541   0.736   1.489
  771SOL     OW 3081   2.667   1.351   2.381
  771SOL    HW1 3082   2.690   1.378   2.292
  771SOL    HW2 3083   2.572   1.367   2.387
  771SOL     MW 3084   2.660   1.354   2.374
  772SOL     OW 3085   0.603   0.481   2.112
  772SOL    HW1 3086   0.546   0.546   2.070
  772SOL    HW2 3087   0.545   0.431   2.169
  772SOL     MW 3088   0.593   0.482   2.113
  773SOL     OW 3089   0.172   2.741   2.964
  773SOL    HW1 3090   0.223   2.795   2.903
  773SOL    HW2 3091   0.135   2.805   3.026
  773SOL     MW 3092   0.173   2.752   2.964
  774SOL     OW 3093   2.652   1.574   1.435
  774SOL    HW1 3094   2.608   1.578   1.351
  774SOL    HW2 3095   2.583   1.550   1.498
  774SOL     MW 3096   2.642   1.572   1.434
  775SOL     OW 3097   0.092   0.555   2.641
  775SOL    HW1 3098   0.154   0.486   2.663
  775SOL    HW2 3099   0.148   0.628   2.612
  775SOL     MW 3100   0.103   0.556   2.639
  776SOL     OW 3101   2.649   2.114   2.980
  776SOL    HW1 3102   2.606   2.045   3.030
  776SOL    HW2 3103   2.586   2.137   2.911
  776SOL     MW 3104   2.640   2.111   2.978
  777SOL     OW 3105   2.656   1.268   0.300
  777SOL    HW1 3106   2.722   1.300   0.361
  777SOL    HW2 3107   2.575   1.263   0.352
  777SOL     MW 3108   2.654   1.271   0.310
  778SOL     OW 3109   2.429   0.145   0.266
  778SOL    HW1 3110   2.365   0.076   0.281
  778SOL    HW2 3111   2.414   0.173   0.175
  778SOL     MW 3112   2.421   0.142   0.259
  779SOL     OW 3113   2.247   1.255   1.665
  779SOL    HW1 3114   2.163   1.281   1.627
  779SOL    HW2 3115   2.249   1.301   1.750
  779SOL     MW 3116   2.239   1.261   1.670
  780SOL     OW 3117   1.477   0.492   1.021
  780SOL    HW1 3118   1.490   0.401   0.995
  780SOL    HW2 3119   1.518   0.499   1.108
  780SOL     MW 3120   1.482   0.485   1.026
  781SOL     OW 3121   1.381   0.521   2.465
  781SOL    HW1 3122   1.344   0.564   2.388
  781SOL    HW2 3123   1.427   0.591   2.512
  781SOL     MW 3124   1.381   0.531   2.463
  782SOL     OW 3125   0.183   2.154   1.131
  782SOL    HW1 3126   0.229   2.228   1.170
  782SOL    HW2 3127   0.108   2.139   1.190
  782SOL     MW 3128   0.180   2.160   1.140
  783SOL     OW 3129   1.439   1.874   2.672
  783SOL    HW1 3130   1.456   1.954   2.623
  783SOL    HW2 3131   1.420   1.904   2.762
  783SOL     MW 3132   1.438   1.883   2.676
  784SOL     OW 3133   0.884   1.006   0.473
  784SOL    HW1 3134   0.949   1.060   0.429
  784SOL    HW2 3135   0.849   0.949   0.404
  784SOL     MW 3136   0.887   1.005   0.463
  785SOL     OW 3137   0.428   1.720   0.605
  785SOL    HW1 3138   0.452   1.631   0.630
  785SOL    HW2 3139   0.408   1.764   0.689
  785SOL     MW 3140   0.429   1.717   0.615
  786SOL     OW 3141   1.883   1.532   2.977
  786SOL    HW1 3142   1.924   1.601   2.925
  786SOL    HW2 3143   1.805   1.507   2.927
  786SOL     MW 3144   1.880   1.535   2.968
  787SOL     OW 3145   0.935   0.706   0.026
  787SOL    HW1 3146   0.982   0.625   0.043
  787SOL    HW2 3147   0.842   0.679   0.022
  787SOL     MW 3148   0.930   0.697   0.028
  788SOL     OW 3149   1.465   0.438   2.173
  788SOL    HW1 3150   1.387   0.476   2.133
  788SOL    HW2 3151   1.434   0.403   2.257
  788SOL     MW 3152   1.455   0.438   2.177
  789SOL     OW 3153   2.350   1.785   2.501
  789SOL    HW1 3154   2.408   1.808   2.573
  789SOL    HW2 3155   2.392   1.708   2.461
  789SOL     MW 3156   2.359   1.779   2.504
  790SOL     OW 3157   2.214   2.510   2.952
  790SOL    HW1 3158   2.153   2.582   2.938
  790SOL    HW2 3159   2.168   2.450   3.012
  790SOL     MW 3160   2.205   2.511   2.956
  791SOL     OW 3161   1.271   2.481   1.887
  791SOL    HW1 3162   1.252   2.450   1.975
  791SOL    HW2 3163   1.313   2.567   1.900
  791SOL     MW 3164   1.274   2.486   1.895
  792SOL     OW 3165   0.400   0.194   2.231
  792SOL    HW1 3166   0.452   0.248   2.290
  792SOL    HW2 3167   0.309   0.221   2.247
  792SOL     MW 3168   0.397   0.201   2.237
  793SOL     OW 3169   2.236   1.075   1.912
  793SOL    HW1 3170   2.305   1.122   1.865
  793SOL    HW2 3171   2.265   1.076   2.004
  793SOL     MW 3172   2.244   1.080   1.916
  794SOL     OW 3173   1.229   1.472   2.053
  794SOL    HW1 3174   1.287   1.542   2.025
  794SOL    HW2 3175   1.209   1.423   1.972
  794SOL     MW 3176   1.233   1.473   2.043
  795SOL     OW 3177   1.983   1.050   1.433
  795SOL    HW1 3178   2.011   0.964   1.465
  795SOL    HW2 3179   1.903   1.031   1.382
  795SOL     MW 3180   1.977   1.041   1.432
  796SOL     OW 3181   1.705   1.228   0.654
  796SOL    HW1 3182   1.706   1.146   0.703
  796SOL    HW2 3183   1.696   1.296   0.722
  796SOL     MW 3184   1.705   1.228   0.664
  797SOL     OW 3185   1.923   2.495   2.554
  797SOL    HW1 3186   2.015   2.496   2.529
  797SOL    HW2 3187   1.921   2.541   2.639
  797SOL     MW 3188   1.931   2.500   2.560
  798SOL     OW 3189   1.495   0.287   2.451
  798SOL    HW1 3190   1.571   0.232   2.463
  798SOL    HW2 3191   1.490   0.341   2.531
  798SOL     MW 3192   1.501   0.288   2.459
  799SOL     OW 3193   3.052   2.399   1.229
  799SOL    HW1 3194   2.970   2.394   1.181
  799SOL    HW2 3195   3.025   2.409   1.321
  799SOL     MW 3196   3.042   2.399   1.234
  800SOL     OW 3197   1.631   0.585   0.112
  800SOL    HW1 3198   1.665   0.508   0.068
  800SOL    HW2 3199   1.595   0.551   0.195
  800SOL     MW 3200   1.631   0.575   0.116
  801SOL     OW 3201   3.014   2.944   3.077
  801SOL    HW1 3202   2.984   2.954   2.987
  801SOL    HW2 3203   2.942   2.899   3.122
  801SOL     MW 3204   3.005   2.940   3.073
  802SOL     OW 3205   0.632   1.638   2.750
  802SOL    HW1 3206   0.595   1.717   2.788
  802SOL    HW2 3207   0.712   1.668   2.705
  802SOL     MW 3208   0.637   1.648   2.750
  803SOL     OW 3209   1.471   0.383   1.740
  803SOL    HW1 3210   1.502   0.473   1.747
  803SOL    HW2 3211   1.416   0.370   1.818
  803SOL     MW 3212   1.468   0.390   1.748
  804SOL     OW 3213   2.338   1.412   2.908
  804SOL    HW1 3214   2.253   1.452   2.926
  804SOL    HW2 3215   2.382   1.475   2.850
  804SOL     MW 3216   2.335   1.422   2.904
  805SOL     OW 3217   0.926   1.599   1.169
  805SOL    HW1 3218   1.012   1.611   1.131
  805SOL    HW2 3219   0.942   1.549   1.250
  805SOL     MW 3220   0.935   1.596   1.173
  806SOL     OW 3221   0.506   2.299   2.639
  806SOL    HW1 3222   0.548   2.326   2.557
  806SOL    HW2 3223   0.412   2.299   2.619
  806SOL     MW 3224   0.501   2.301   2.630
  807SOL     OW 3225   1.841   2.350   1.327
  807SOL    HW1 3226   1.753   2.313   1.319
  807SOL    HW2 3227   1.869   2.362   1.235
  807SOL     MW 3228   1.836   2.348   1.318
  808SOL     OW 3229   3.072   2.291   1.016
  808SOL    HW1 3230   3.081   2.229   1.088
  808SOL    HW2 3231   3.008   2.251   0.957
  808SOL     MW 3232   3.067   2.283   1.017
  809SOL     OW 3233   1.516   1.933   1.607
  809SOL    HW1 3234   1.512   1.838   1.603
  809SOL    HW2 3235   1.610   1.954   1.601
  809SOL     MW 3236   1.524   1.927   1.605
  810SOL     OW 3237   2.761   1.190   1.269
  810SOL    HW1 3238   2.669   1.166   1.266
  810SOL    HW2 3239   2.775   1.245   1.191
  810SOL     MW 3240   2.754   1.194   1.262
  811SOL     OW 3241   0.158   1.258   1.917
  811SOL    HW1 3242   0.240   1.240   1.871
  811SOL    HW2 3243   0.173   1.341   1.962
  811SOL     MW 3244   0.166   1.264   1.916
  812SOL     OW 3245   2.698   1.291   1.693
  812SOL    HW1 3246   2.616   1.319   1.652
  812SOL    HW2 3247   2.671   1.231   1.764
  812SOL     MW 3248   2.689   1.287   1.695
  813SOL     OW 3249   0.015   2.459   1.113
  813SOL    HW1 3250   0.100   2.420   1.131
  813SOL    HW2 3251   0.017   2.544   1.158
  813SOL     MW 3252   0.023   2.463   1.118
  814SOL     OW 3253   1.269   2.938   0.394
  814SOL    HW1 3254   1.350   2.890   0.411
  814SOL    HW2 3255   1.231   2.893   0.317
  814SOL     MW 3256   1.272   2.929   0.389
  815SOL     OW 3257   0.627   0.846   0.771
  815SOL    HW1 3258   0.700   0.907   0.770
  815SOL    HW2 3259   0.563   0.884   0.709
  815SOL     MW 3260   0.627   0.855   0.765
  816SOL     OW 3261   1.902   1.089   2.774
  816SOL    HW1 3262   1.932   1.123   2.690
  816SOL    HW2 3263   1.979   1.095   2.832
  816SOL     MW 3264   1.911   1.093   2.773
  817SOL     OW 3265   1.109   2.363   0.740
  817SOL    HW1 3266   1.141   2.386   0.654
  817SOL    HW2 3267   1.184   2.376   0.798
  817SOL     MW 3268   1.118   2.367   0.738
  818SOL     OW 3269   0.423   0.662   2.697
  818SOL    HW1 3270   0.333   0.686   2.717
  818SOL    HW2 3271   0.456   0.621   2.778
  818SOL     MW 3272   0.418   0.660   2.706
  819SOL     OW 3273   0.384   2.945   0.211
  819SOL    HW1 3274   0.476   2.929   0.188
  819SOL    HW2 3275   0.378   2.921   0.304
  819SOL     MW 3276   0.392   2.942   0.218
  820SOL     OW 3277   1.569   0.212   1.181
  820SOL    HW1 3278   1.490   0.189   1.131
  820SOL    HW2 3279   1.636   0.152   1.148
  820SOL     MW 3280   1.568   0.205   1.173
  821SOL     OW 3281   1.454   1.140   1.978
  821SOL    HW1 3282   1.390   1.196   1.935
  821SOL    HW2 3283   1.407   1.058   1.996
  821SOL     MW 3284   1.445   1.138   1.976
  822SOL     OW 3285   2.133   2.247   0.216
  822SOL    HW1 3286   2.180   2.183   0.163
  822SOL    HW2 3287   2.159   2.227   0.307
  822SOL     MW 3288   2.140   2.240   0.220
  823SOL     OW 3289   2.783   2.098   2.709
  823SOL    HW1 3290   2.811   2.186   2.687
  823SOL    HW2 3291   2.853   2.040   2.676
  823SOL     MW 3292   2.792   2.100   2.705
  824SOL     OW 3293   2.431   0.874   0.418
  824SOL    HW1 3294   2.493   0.811   0.453
  824SOL    HW2 3295   2.346   0.847   0.453
  824SOL     MW 3296   2.429   0.867   0.425
  825SOL     OW 3297   0.370   1.896   1.337
  825SOL    HW1 3298   0.285   1.867   1.304
  825SOL    HW2 3299   0.350   1.933   1.424
  825SOL     MW 3300   0.361   1.896   1.342
  826SOL     OW 3301   2.845   2.395   0.592
  826SOL    HW1 3302   2.799   2.466   0.637
  826SOL    HW2 3303   2.895   2.439   0.522
  826SOL     MW 3304   2.846   2.405   0.590
  827SOL     OW 3305   2.229   1.907   1.243
  827SOL    HW1 3306   2.276   1.855   1.178
  827SOL    HW2 3307   2.136   1.898   1.218
  827SOL     MW 3308   2.224   1.901   1.235
  828SOL     OW 3309   0.725   2.767   0.180
  828SOL    HW1 3310   0.780   2.700   0.221
  828SOL    HW2 3311   0.677   2.719   0.111
  828SOL     MW 3312   0.724   2.757   0.178
  829SOL     OW 3313   2.394   2.522   2.723
  829SOL    HW1 3314   2.380   2.552   2.813
  829SOL    HW2 3315   2.488   2.505   2.717
  829SOL     MW 3316   2.401   2.522   2.730
  830SOL     OW 3317   2.416   2.817   1.809
  830SOL    HW1 3318   2.366   2.798   1.888
  830SOL    HW2 3319   2.485   2.750   1.808
  830SOL     MW 3320   2.418   2.809   1.816
  831SOL     OW 3321   1.729   0.081   0.143
  831SOL    HW1 3322   1.804   0.040   0.100
  831SOL    HW2 3323   1.768   0.132   0.216
  831SOL     MW 3324   1.739   0.083   0.146
  832SOL     OW 3325   1.312   1.666   1.611
  832SOL    HW1 3326   1.392   1.636   1.568
  832SOL    HW2 3327   1.342   1.723   1.682
  832SOL     MW 3328   1.321   1.669   1.614
  833SOL     OW 3329   0.957   0.326   2.729
  833SOL    HW1 3330   0.947   0.273   2.808
  833SOL    HW2 3331   1.052   0.328   2.713
  833SOL     MW 3332   0.965   0.321   2.734
  834SOL     OW 3333   0.460   1.681   3.122
  834SOL    HW1 3334   0.417   1.757   3.085
  834SOL    HW2 3335   0.469   1.620   3.048
  834SOL     MW 3336   0.458   1.682   3.112
  835SOL     OW 3337   2.357   0.899   1.470
  835SOL    HW1 3338   2.446   0.878   1.496
  835SOL    HW2 3339   2.348   0.863   1.381
  835SOL     MW 3340   2.363   0.893   1.465
  836SOL     OW 3341   1.664   2.510   1.425
  836SOL    HW1 3342   1.744   2.558   1.443
  836SOL    HW2 3343   1.656   2.511   1.329
  836SOL     MW 3344   1.670   2.513   1.418
  837SOL     OW 3345   2.745   1.175   0.028
  837SOL    HW1 3346   2.701   1.235   0.088
  837SOL    HW2 3347   2.835   1.208   0.022
  837SOL     MW 3348   2.750   1.183   0.033
  838SOL     OW 3349   0.678   2.695   0.432
  838SOL    HW1 3350   0.722   2.613   0.457
  838SOL    HW2 3351   0.689   2.752   0.509
  838SOL     MW 3352   0.684   2.693   0.441
  839SOL     OW 3353   2.743   0.349   1.572
  839SOL    HW1 3354   2.760   0.270   1.522
  839SOL    HW2 3355   2.750   0.322   1.664
  839SOL     MW 3356   2.746   0.340   1.576
  840SOL     OW 3357   2.854   0.700   1.510
  840SOL    HW1 3358   2.891   0.787   1.498
  840SOL    HW2 3359   2.845   0.665   1.421
  840SOL     MW 3360   2.857   0.704   1.501
  841SOL     OW 3361   1.185   0.840   2.427
  841SOL    HW1 3362   1.102   0.828   2.472
  841SOL    HW2 3363   1.252   0.818   2.493
  841SOL     MW 3364   1.184   0.836   2.437
  842SOL     OW 3365   0.632   1.878   1.204
  842SOL    HW1 3366   0.541   1.850   1.206
  842SOL    HW2 3367   0.663   1.855   1.116
  842SOL     MW 3368   0.627   1.874   1.196
  843SOL     OW 3369   1.710   1.573   0.421
  843SOL    HW1 3370   1.729   1.502   0.360
  843SOL    HW2 3371   1.681   1.529   0.501
  843SOL     MW 3372   1.709   1.563   0.423
  844SOL     OW 3373   2.499   1.061   0.890
  844SOL    HW1 3374   2.569   1.123   0.871
  844SOL    HW2 3375   2.423   1.116   0.913
  844SOL     MW 3376   2.498   1.071   0.890
  845SOL     OW 3377   0.511   2.298   1.133
  845SOL    HW1 3378   0.426   2.288   1.092
  845SOL    HW2 3379   0.513   2.232   1.203
  845SOL     MW 3380   0.504   2.291   1.136
  846SOL     OW 3381   2.288   1.326   2.710
  846SOL    HW1 3382   2.225   1.398   2.715
  846SOL    HW2 3383   2.358   1.359   2.654
  846SOL     MW 3384   2.289   1.336   2.706
  847SOL     OW 3385   1.472   1.721   2.461
  847SOL    HW1 3386   1.463   1.692   2.552
  847SOL    HW2 3387   1.433   1.808   2.460
  847SOL     MW 3388   1.468   1.726   2.469
  848SOL     OW 3389   2.032   2.687   2.271
  848SOL    HW1 3390   2.097   2.746   2.233
  848SOL    HW2 3391   2.081   2.637   2.337
  848SOL     MW 3392   2.042   2.688   2.275
  849SOL     OW 3393   1.085   1.407   2.604
  849SOL    HW1 3394   1.139   1.454   2.541
  849SOL    HW2 3395   1.009   1.376   2.554
  849SOL     MW 3396   1.083   1.408   2.594
  850SOL     OW 3397   1.942   2.966   0.882
  850SOL    HW1 3398   1.879   2.911   0.836
  850SOL    HW2 3399   1.894   2.997   0.960
  850SOL     MW 3400   1.932   2.963   0.885
  851SOL     OW 3401   2.967   1.074   0.877
  851SOL    HW1 3402   3.055   1.108   0.865
  851SOL    HW2 3403   2.936   1.115   0.958
  851SOL     MW 3404   2.971   1.081   0.883
  852SOL     OW 3405   0.054   2.650   1.750
  852SOL    HW1 3406  -0.018   2.667   1.690
  852SOL    HW2 3407   0.104   2.732   1.752
  852SOL     MW 3408   0.052   2.659   1.746
  853SOL     OW 3409   2.762   0.983   1.559
  853SOL    HW1 3410   2.685   1.008   1.507
  853SOL    HW2 3411   2.726   0.942   1.638
  853SOL     MW 3412   2.752   0.981   1.561
  854SOL     OW 3413   1.353   0.512   1.549
  854SOL    HW1 3414   1.285   0.458   1.510
  854SOL    HW2 3415   1.320   0.533   1.637
  854SOL     MW 3416   1.345   0.509   1.554
  855SOL     OW 3417   3.047   1.164   2.258
  855SOL    HW1 3418   3.081   1.226   2.194
  855SOL    HW2 3419   3.081   1.197   2.342
  855SOL     MW 3420   3.053   1.173   2.260
  856SOL     OW 3421   2.916   1.748   1.081
  856SOL    HW1 3422   2.869   1.668   1.104
  856SOL    HW2 3423   2.882   1.771   0.994
  856SOL     MW 3424   2.908   1.744   1.075
  857SOL     OW 3425   0.429   2.910   1.929
  857SOL    HW1 3426   0.336   2.909   1.909
  857SOL    HW2 3427   0.446   2.824   1.967
  857SOL     MW 3428   0.423   2.902   1.930
  858SOL     OW 3429   1.071   1.461   0.252
  858SOL    HW1 3430   1.075   1.399   0.180
  858SOL    HW2 3431   1.157   1.452   0.296
  858SOL     MW 3432   1.079   1.455   0.249
  859SOL     OW 3433   2.800   1.135   2.103
  859SOL    HW1 3434   2.725   1.191   2.118
  859SOL    HW2 3435   2.876   1.191   2.121
  859SOL     MW 3436   2.801   1.145   2.106
  860SOL     OW 3437   0.610   0.108   1.856
  860SOL    HW1 3438   0.684   0.109   1.796
  860SOL    HW2 3439   0.562   0.189   1.836
  860SOL     MW 3440   0.611   0.115   1.849
  861SOL     OW 3441   2.146   1.396   2.127
  861SOL    HW1 3442   2.197   1.318   2.146
  861SOL    HW2 3443   2.197   1.442   2.059
  861SOL     MW 3444   2.155   1.393   2.122
  862SOL     OW 3445   2.744   0.385   2.676
  862SOL    HW1 3446   2.677   0.390   2.608
  862SOL    HW2 3447   2.723   0.305   2.725
  862SOL     MW 3448   2.737   0.377   2.674
  863SOL     OW 3449   2.884   0.610   1.005
  863SOL    HW1 3450   2.840   0.682   1.051
  863SOL    HW2 3451   2.976   0.618   1.030
  863SOL     MW 3452   2.888   0.616   1.012
  864SOL     OW 3453   2.908   0.775   2.857
  864SOL    HW1 3454   2.813   0.782   2.853
  864SOL    HW2 3455   2.938   0.812   2.773
  864SOL     MW 3456   2.902   0.780   2.849
  865SOL     OW 3457   0.660   1.504   0.453
  865SOL    HW1 3458   0.615   1.442   0.510
  865SOL    HW2 3459   0.591   1.538   0.395
  865SOL     MW 3460   0.650   1.502   0.453
  866SOL     OW 3461   2.976   0.181   1.344
  866SOL    HW1 3462   3.040   0.156   1.278
  866SOL    HW2 3463   2.944   0.267   1.316
  866SOL     MW 3464   2.978   0.186   1.336
  867SOL     OW 3465   1.292   0.758   2.192
  867SOL    HW1 3466   1.226   0.712   2.244
  867SOL    HW2 3467   1.314   0.696   2.121
  867SOL     MW 3468   1.288   0.749   2.189
  868SOL     OW 3469   0.682   0.128   2.248
  868SOL    HW1 3470   0.649   0.040   2.232
  868SOL    HW2 3471   0.634   0.183   2.185
  868SOL     MW 3472   0.674   0.126   2.241
  869SOL     OW 3473   0.042   1.717   2.936
  869SOL    HW1 3474   0.023   1.694   2.845
  869SOL    HW2 3475   0.074   1.808   2.932
  869SOL     MW 3476   0.043   1.724   2.928
  870SOL     OW 3477   1.280   1.621   0.719
  870SOL    HW1 3478   1.345   1.553   0.706
  870SOL    HW2 3479   1.238   1.599   0.803
  870SOL     MW 3480   1.282   1.614   0.726
  871SOL     OW 3481   1.070   0.527   1.505
  871SOL    HW1 3482   0.989   0.574   1.521
  871SOL    HW2 3483   1.117   0.582   1.441
  871SOL     MW 3484   1.067   0.536   1.501
  872SOL     OW 3485   2.003   1.308   2.785
  872SOL    HW1 3486   1.982   1.401   2.786
  872SOL    HW2 3487   2.071   1.299   2.853
  872SOL     MW 3488   2.007   1.315   2.792
  873SOL     OW 3489   2.414   2.198   2.490
  873SOL    HW1 3490   2.419   2.226   2.581
  873SOL    HW2 3491   2.505   2.195   2.461
  873SOL     MW 3492   2.422   2.200   2.496
  874SOL     OW 3493   3.022   2.950   1.664
  874SOL    HW1 3494   2.928   2.942   1.649
  874SOL    HW2 3495   3.052   3.016   1.601
  874SOL     MW 3496   3.017   2.956   1.657
  875SOL     OW 3497   1.442   1.069   1.235
  875SOL    HW1 3498   1.501   1.030   1.171
  875SOL    HW2 3499   1.455   1.164   1.225
  875SOL     MW 3500   1.448   1.075   1.228
  876SOL     OW 3501   0.068   2.914   2.571
  876SOL    HW1 3502   0.128   2.893   2.500
  876SOL    HW2 3503  -0.011   2.948   2.528
  876SOL     MW 3504   0.066   2.915   2.561
  877SOL     OW 3505   3.046   1.191   1.635
  877SOL    HW1 3506   2.991   1.263   1.606
  877SOL    HW2 3507   2.993   1.145   1.701
  877SOL     MW 3508   3.037   1.192   1.638
  878SOL     OW 3509   0.475   1.385   0.265
  878SOL    HW1 3510   0.436   1.298   0.270
  878SOL    HW2 3511   0.537   1.380   0.192
  878SOL     MW 3512   0.477   1.377   0.258
  879SOL     OW 3513   3.015   2.892   1.054
  879SOL    HW1 3514   2.936   2.925   1.012
  879SOL    HW2 3515   2.982   2.836   1.126
  879SOL     MW 3516   3.005   2.889   1.057
  880SOL     OW 3517   0.522   1.495   2.875
  880SOL    HW1 3518   0.492   1.404   2.866
  880SOL    HW2 3519   0.604   1.489   2.926
  880SOL     MW 3520   0.527   1.486   2.878
  881SOL     OW 3521   3.012   0.046   0.839
  881SOL    HW1 3522   2.924   0.040   0.804
  881SOL    HW2 3523   3.022   0.139   0.862
  881SOL     MW 3524   3.005   0.054   0.839
  882SOL     OW 3525   2.698   0.522   0.021
  882SOL    HW1 3526   2.684   0.606   0.064
  882SOL    HW2 3527   2.661   0.457   0.083
  882SOL     MW 3528   2.693   0.523   0.030
  883SOL     OW 3529   1.096   1.190   1.764
  883SOL    HW1 3530   1.166   1.241   1.803
  883SOL    HW2 3531   1.016   1.240   1.783
  883SOL     MW 3532   1.095   1.199   1.769
  884SOL     OW 3533   0.233   0.917   0.037
  884SOL    HW1 3534   0.318   0.953   0.058
  884SOL    HW2 3535   0.241   0.823   0.054
  884SOL     MW 3536   0.240   0.912   0.041
  885SOL     OW 3537   1.550   2.175   0.957
  885SOL    HW1 3538   1.470   2.153   1.003
  885SOL    HW2 3539   1.524   2.241   0.891
  885SOL     MW 3540   1.541   2.180   0.955
  886SOL     OW 3541   2.047   2.739   1.760
  886SOL    HW1 3542   2.126   2.705   1.801
  886SOL    HW2 3543   1.980   2.672   1.777
  886SOL     MW 3544   2.047   2.731   1.765
  887SOL     OW 3545   2.006   2.150   2.168
  887SOL    HW1 3546   1.959   2.226   2.201
  887SOL    HW2 3547   2.085   2.186   2.126
  887SOL     MW 3548   2.009   2.160   2.167
  888SOL     OW 3549   2.966   3.057   1.848
  888SOL    HW1 3550   2.957   3.140   1.802
  888SOL    HW2 3551   2.898   3.059   1.916
  888SOL     MW 3552   2.959   3.064   1.849
  889SOL     OW 3553   2.455   2.966   0.856
  889SOL    HW1 3554   2.474   2.872   0.859
  889SOL    HW2 3555   2.490   3.000   0.938
  889SOL     MW 3556   2.460   2.961   0.863
  890SOL     OW 3557   1.600   0.627   2.255
  890SOL    HW1 3558   1.520   0.648   2.208
  890SOL    HW2 3559   1.574   0.561   2.319
  890SOL     MW 3560   1.591   0.623   2.256
  891SOL     OW 3561   3.074   1.627   3.033
  891SOL    HW1 3562   3.077   1.594   2.944
  891SOL    HW2 3563   2.982   1.653   3.046
  891SOL     MW 3564   3.066   1.626   3.027
  892SOL     OW 3565   1.559   2.673   1.632
  892SOL    HW1 3566   1.611   2.594   1.622
  892SOL    HW2 3567   1.495   2.670   1.561
  892SOL     MW 3568   1.557   2.666   1.625
  893SOL     OW 3569   0.348   0.996   2.269
  893SOL    HW1 3570   0.324   1.018   2.180
  893SOL    HW2 3571   0.349   1.081   2.315
  893SOL     MW 3572   0.345   1.006   2.266
  894SOL     OW 3573   1.306   0.978   0.271
  894SOL    HW1 3574   1.363   0.906   0.295
  894SOL    HW2 3575   1.246   0.940   0.205
  894SOL     MW 3576   1.305   0.968   0.268
  895SOL     OW 3577   1.318   1.108   0.937
  895SOL    HW1 3578   1.345   1.193   0.901
  895SOL    HW2 3579   1.222   1.114   0.943
  895SOL     MW 3580   1.312   1.116   0.934
  896SOL     OW 3581   2.714   0.116   0.480
  896SOL    HW1 3582   2.661   0.070   0.415
  896SOL    HW2 3583   2.653   0.176   0.523
  896SOL     MW 3584   2.704   0.117   0.479
  897SOL     OW 3585   2.008   1.927   1.432
  897SOL    HW1 3586   2.102   1.908   1.435
  897SOL    HW2 3587   1.994   1.992   1.502
  897SOL     MW 3588   2.015   1.932   1.439
  898SOL     OW 3589   2.634   1.746   2.859
  898SOL    HW1 3590   2.620   1.779   2.947
  898SOL    HW2 3591   2.727   1.720   2.857
  898SOL     MW 3592   2.641   1.746   2.866
  899SOL     OW 3593   0.367   0.418   1.353
  899SOL    HW1 3594   0.412   0.442   1.272
  899SOL    HW2 3595   0.425   0.451   1.423
  899SOL     MW 3596   0.376   0.424   1.353
  900SOL     OW 3597   3.032   2.144   1.899
  900SOL    HW1 3598   3.064   2.227   1.935
  900SOL    HW2 3599   3.066   2.143   1.809
  900SOL     MW 3600   3.039   2.151   1.894
  901SOL     OW 3601   0.996   2.103   1.754
  901SOL    HW1 3602   0.925   2.166   1.758
  901SOL    HW2 3603   1.072   2.153   1.723
  901SOL     MW 3604   0.997   2.113   1.752
  902SOL     OW 3605   1.764   2.934   2.241
  902SOL    HW1 3606   1.747   2.852   2.196
  902SOL    HW2 3607   1.820   2.910   2.315
  902SOL     MW 3608   1.768   2.925   2.244
  903SOL     OW 3609   2.767   2.577   2.468
  903SOL    HW1 3610   2.712   2.540   2.538
  903SOL    HW2 3611   2.720   2.554   2.387
  903SOL     MW 3612   2.757   2.572   2.467
  904SOL     OW 3613   0.126   0.644   2.393
  904SOL    HW1 3614   0.160   0.555   2.404
  904SOL    HW2 3615   0.123   0.657   2.298
  904SOL     MW 3616   0.128   0.637   2.386
  905SOL     OW 3617   2.705   2.114   2.413
  905SOL    HW1 3618   2.799   2.099   2.422
  905SOL    HW2 3619   2.699   2.193   2.357
  905SOL     MW 3620   2.713   2.120   2.408
  906SOL     OW 3621   2.638   2.714   2.770
  906SOL    HW1 3622   2.681   2.636   2.738
  906SOL    HW2 3623   2.565   2.681   2.824
  906SOL     MW 3624   2.635   2.705   2.773
  907SOL     OW 3625   1.812   2.617   1.215
  907SOL    HW1 3626   1.901   2.583   1.220
  907SOL    HW2 3627   1.818   2.707   1.249
  907SOL     MW 3628   1.820   2.623   1.218
  908SOL     OW 3629   2.306   1.072   1.325
  908SOL    HW1 3630   2.260   1.076   1.241
  908SOL    HW2 3631   2.383   1.129   1.313
  908SOL     MW 3632   2.309   1.078   1.317
  909SOL     OW 3633   1.476   2.175   1.478
  909SOL    HW1 3634   1.459   2.268   1.482
  909SOL    HW2 3635   1.527   2.156   1.558
  909SOL     MW 3636   1.479   2.181   1.486
  910SOL     OW 3637   1.690   1.966   1.107
  910SOL    HW1 3638   1.743   1.887   1.111
  910SOL    HW2 3639   1.638   1.965   1.188
  910SOL     MW 3640   1.690   1.960   1.115
  911SOL     OW 3641   2.622   1.187   3.053
  911SOL    HW1 3642   2.648   1.248   3.122
  911SOL    HW2 3643   2.526   1.181   3.061
  911SOL     MW 3644   2.615   1.192   3.060
  912SOL     OW 3645   0.504   1.119   2.006
  912SOL    HW1 3646   0.413   1.092   1.991
  912SOL    HW2 3647   0.508   1.136   2.101
  912SOL     MW 3648   0.496   1.117   2.013
  913SOL     OW 3649   1.213   2.358   0.100
  913SOL    HW1 3650   1.169   2.426   0.049
  913SOL    HW2 3651   1.141   2.305   0.137
  913SOL     MW 3652   1.202   2.359   0.098
  914SOL     OW 3653   2.575   2.049   0.807
  914SOL    HW1 3654   2.535   1.996   0.875
  914SOL    HW2 3655   2.511   2.048   0.735
  914SOL     MW 3656   2.565   2.045   0.807
  915SOL     OW 3657   1.366   2.558   1.203
  915SOL    HW1 3658   1.452   2.528   1.233
  915SOL    HW2 3659   1.344   2.497   1.131
  915SOL     MW 3660   1.371   2.549   1.199
  916SOL     OW 3661   2.947   0.170   0.597
  916SOL    HW1 3662   2.860   0.168   0.636
  916SOL    HW2 3663   2.974   0.078   0.593
  916SOL     MW 3664   2.942   0.162   0.599
  917SOL     OW 3665   2.097   1.967   2.485
  917SOL    HW1 3666   2.020   1.999   2.440
  917SOL    HW2 3667   2.063   1.910   2.554
  917SOL     MW 3668   2.088   1.964   2.487
  918SOL     OW 3669   0.406   1.136   2.740
  918SOL    HW1 3670   0.431   1.199   2.672
  918SOL    HW2 3671   0.321   1.169   2.773
  918SOL     MW 3672   0.400   1.144   2.736
  919SOL     OW 3673   2.423   1.663   0.904
  919SOL    HW1 3674   2.383   1.742   0.940
  919SOL    HW2 3675   2.513   1.688   0.885
  919SOL     MW 3676   2.428   1.672   0.906
  920SOL     OW 3677   2.989   1.188   1.933
  920SOL    HW1 3678   3.045   1.255   1.970
  920SOL    HW2 3679   3.048   1.113   1.916
  920SOL     MW 3680   2.999   1.186   1.935
  921SOL     OW 3681   1.331   1.481   3.075
  921SOL    HW1 3682   1.245   1.476   3.034
  921SOL    HW2 3683   1.386   1.528   3.011
  921SOL     MW 3684   1.329   1.486   3.066
  922SOL     OW 3685   0.985   0.817   1.195
  922SOL    HW1 3686   0.975   0.726   1.224
  922SOL    HW2 3687   1.003   0.810   1.100
  922SOL     MW 3688   0.985   0.808   1.188
  923SOL     OW 3689   1.996   1.191   1.118
  923SOL    HW1 3690   1.927   1.235   1.167
  923SOL    HW2 3691   2.030   1.260   1.059
  923SOL     MW 3692   1.994   1.202   1.117
  924SOL     OW 3693   0.505   0.399   1.871
  924SOL    HW1 3694   0.467   0.487   1.872
  924SOL    HW2 3695   0.484   0.363   1.958
  924SOL     MW 3696   0.499   0.403   1.879
  925SOL     OW 3697   2.627   0.955   2.204
  925SOL    HW1 3698   2.601   0.880   2.257
  925SOL    HW2 3699   2.557   1.019   2.217
  925SOL     MW 3700   2.619   0.954   2.211
  926SOL     OW 3701   1.836   2.863   0.471
  926SOL    HW1 3702   1.801   2.786   0.427
  926SOL    HW2 3703   1.817   2.849   0.564
  926SOL     MW 3704   1.832   2.855   0.476
  927SOL     OW 3705   0.011   1.862   0.701
  927SOL    HW1 3706  -0.016   1.913   0.776
  927SOL    HW2 3707  -0.019   1.913   0.625
  927SOL     MW 3708   0.007   1.871   0.701
  928SOL     OW 3709   2.416   2.905   0.257
  928SOL    HW1 3710   2.358   2.977   0.279
  928SOL    HW2 3711   2.380   2.869   0.175
  928SOL     MW 3712   2.409   2.908   0.251
  929SOL     OW 3713   0.986   0.743   1.671
  929SOL    HW1 3714   1.051   0.792   1.620
  929SOL    HW2 3715   0.964   0.802   1.744
  929SOL     MW 3716   0.989   0.753   1.673
  930SOL     OW 3717   1.347   0.263   2.096
  930SOL    HW1 3718   1.414   0.196   2.110
  930SOL    HW2 3719   1.283   0.248   2.167
  930SOL     MW 3720   1.347   0.256   2.104
  931SOL     OW 3721   2.987   0.789   0.023
  931SOL    HW1 3722   2.933   0.822   0.095
  931SOL    HW2 3723   3.064   0.847   0.022
  931SOL     MW 3724   2.990   0.797   0.030
  932SOL     OW 3725   0.870   1.296   1.295
  932SOL    HW1 3726   0.814   1.372   1.285
  932SOL    HW2 3727   0.960   1.330   1.293
  932SOL     MW 3728   0.873   1.305   1.295
  933SOL     OW 3729   2.597   2.650   1.368
  933SOL    HW1 3730   2.558   2.634   1.283
  933SOL    HW2 3731   2.676   2.594   1.369
  933SOL     MW 3732   2.602   2.644   1.361
  934SOL     OW 3733   0.610   0.720   0.130
  934SOL    HW1 3734   0.668   0.795   0.119
  934SOL    HW2 3735   0.524   0.759   0.151
  934SOL     MW 3736   0.607   0.730   0.130
  935SOL     OW 3737   1.054   1.986   2.664
  935SOL    HW1 3738   0.981   1.929   2.640
  935SOL    HW2 3739   1.039   2.067   2.614
  935SOL     MW 3740   1.046   1.989   2.658
  936SOL     OW 3741   0.902   2.742   0.449
  936SOL    HW1 3742   0.965   2.795   0.497
  936SOL    HW2 3743   0.947   2.718   0.368
  936SOL     MW 3744   0.912   2.743   0.446
  937SOL     OW 3745   1.313   2.328   2.881
  937SOL    HW1 3746   1.354   2.413   2.894
  937SOL    HW2 3747   1.361   2.289   2.807
  937SOL     MW 3748   1.321   2.331   2.876
  938SOL     OW 3749   2.858   1.126   0.459
  938SOL    HW1 3750   2.862   1.210   0.505
  938SOL    HW2 3751   2.918   1.137   0.385
  938SOL     MW 3752   2.864   1.134   0.457
  939SOL     OW 3753   0.556   1.339   1.828
  939SOL    HW1 3754   0.594   1.336   1.916
  939SOL    HW2 3755   0.498   1.263   1.824
  939SOL     MW 3756   0.554   1.332   1.836
  940SOL     OW 3757   0.892   2.687   1.546
  940SOL    HW1 3758   0.972   2.636   1.540
  940SOL    HW2 3759   0.831   2.632   1.597
  940SOL     MW 3760   0.893   2.678   1.551
  941SOL     OW 3761   0.199   2.107   1.442
  941SOL    HW1 3762   0.155   2.032   1.402
  941SOL    HW2 3763   0.222   2.077   1.530
  941SOL     MW 3764   0.198   2.098   1.446
  942SOL     OW 3765   2.992   0.390   1.062
  942SOL    HW1 3766   3.081   0.423   1.070
  942SOL    HW2 3767   2.995   0.330   0.987
  942SOL     MW 3768   3.000   0.386   1.056
  943SOL     OW 3769   0.353   0.463   2.476
  943SOL    HW1 3770   0.362   0.388   2.534
  943SOL    HW2 3771   0.335   0.537   2.536
  943SOL     MW 3772   0.353   0.464   2.487
  944SOL     OW 3773   0.526   2.351   2.061
  944SOL    HW1 3774   0.467   2.277   2.074
  944SOL    HW2 3775   0.513   2.406   2.139
  944SOL     MW 3776   0.520   2.350   2.069
  945SOL     OW 3777   1.120   1.223   2.095
  945SOL    HW1 3778   1.166   1.286   2.152
  945SOL    HW2 3779   1.180   1.211   2.021
  945SOL     MW 3780   1.130   1.227   2.093
  946SOL     OW 3781   2.334   1.757   2.221
  946SOL    HW1 3782   2.274   1.801   2.279
  946SOL    HW2 3783   2.281   1.733   2.144
  946SOL     MW 3784   2.324   1.759   2.218
  947SOL     OW 3785   0.897   3.092   1.079
  947SOL    HW1 3786   0.898   3.037   1.158
  947SOL    HW2 3787   0.816   3.065   1.033
  947SOL     MW 3788   0.889   3.085   1.082
  948SOL     OW 3789   0.777   1.713   0.134
  948SOL    HW1 3790   0.727   1.790   0.160
  948SOL    HW2 3791   0.847   1.748   0.078
  948SOL     MW 3792   0.780   1.723   0.131
  949SOL     OW 3793   2.857   1.063   2.800
  949SOL    HW1 3794   2.930   1.021   2.844
  949SOL    HW2 3795   2.826   0.997   2.736
  949SOL     MW 3796   2.860   1.053   2.798
  950SOL     OW 3797   0.212   2.412   0.736
  950SOL    HW1 3798   0.215   2.396   0.642
  950SOL    HW2 3799   0.279   2.480   0.751
  950SOL     MW 3800   0.218   2.417   0.729
  951SOL     OW 3801   1.558   0.323   2.771
  951SOL    HW1 3802   1.526   0.407   2.737
  951SOL    HW2 3803   1.496   0.258   2.737
  951SOL     MW 3804   1.550   0.325   2.764
  952SOL     OW 3805   1.696   0.380   2.600
  952SOL    HW1 3806   1.773   0.342   2.642
  952SOL    HW2 3807   1.720   0.472   2.584
  952SOL     MW 3808   1.705   0.385   2.601
  953SOL     OW 3809   2.356   0.087   2.913
  953SOL    HW1 3810   2.416   0.105   2.985
  953SOL    HW2 3811   2.410   0.040   2.848
  953SOL     MW 3812   2.366   0.084   2.913
  954SOL     OW 3813   1.265   1.933   0.928
  954SOL    HW1 3814   1.228   1.867   0.986
  954SOL    HW2 3815   1.263   1.892   0.840
  954SOL     MW 3816   1.261   1.924   0.925
  955SOL     OW 3817   0.118   0.288   2.576
  955SOL    HW1 3818   0.028   0.282   2.543
  955SOL    HW2 3819   0.172   0.283   2.496
  955SOL     MW 3820   0.115   0.287   2.566
  956SOL     OW 3821   1.961   1.318   3.043
  956SOL    HW1 3822   1.891   1.312   2.979
  956SOL    HW2 3823   1.947   1.243   3.101
  956SOL     MW 3824   1.955   1.310   3.042
  957SOL     OW 3825   3.045   2.379   0.681
  957SOL    HW1 3826   3.061   2.311   0.616
  957SOL    HW2 3827   3.081   2.343   0.763
  957SOL     MW 3828   3.051   2.371   0.683
  958SOL     OW 3829   2.123   1.645   1.950
  958SOL    HW1 3830   2.084   1.635   1.863
  958SOL    HW2 3831   2.059   1.697   1.999
  958SOL     MW 3832   2.114   1.648   1.947
  959SOL     OW 3833   2.351   2.161   1.133
  959SOL    HW1 3834   2.264   2.182   1.101
  959SOL    HW2 3835   2.337   2.096   1.203
  959SOL     MW 3836   2.343   2.156   1.136
  960SOL     OW 3837   1.852   2.019   1.256
  960SOL    HW1 3838   1.825   1.946   1.312
  960SOL    HW2 3839   1.936   1.989   1.219
  960SOL     MW 3840   1.857   2.009   1.257
  961SOL     OW 3841   1.484   2.160   2.553
  961SOL    HW1 3842   1.473   2.138   2.461
  961SOL    HW2 3843   1.566   2.210   2.556
  961SOL     MW 3844   1.490   2.163   2.545
  962SOL     OW 3845   3.004   2.611   2.084
  962SOL    HW1 3846   3.082   2.639   2.038
  962SOL    HW2 3847   2.990   2.679   2.151
  962SOL     MW 3848   3.009   2.620   2.086
  963SOL     OW 3849   0.722   1.183   2.231
  963SOL    HW1 3850   0.652   1.137   2.277
  963SOL    HW2 3851   0.677   1.251   2.181
  963SOL     MW 3852   0.712   1.185   2.231
  964SOL     OW 3853   3.012   1.340   0.927
  964SOL    HW1 3854   3.080   1.332   0.860
  964SOL    HW2 3855   3.050   1.297   1.005
  964SOL     MW 3856   3.021   1.336   0.929
  965SOL     OW 3857   1.283   1.225   1.562
  965SOL    HW1 3858   1.319   1.277   1.491
  965SOL    HW2 3859   1.336   1.249   1.639
  965SOL     MW 3860   1.290   1.232   1.563
  966SOL     OW 3861   2.028   2.841   0.351
  966SOL    HW1 3862   2.003   2.885   0.270
  966SOL    HW2 3863   2.118   2.873   0.369
  966SOL     MW 3864   2.034   2.848   0.346
  967SOL     OW 3865   1.382   0.551   2.941
  967SOL    HW1 3866   1.407   0.554   2.850
  967SOL    HW2 3867   1.465   0.543   2.989
  967SOL     MW 3868   1.391   0.551   2.938
  968SOL     OW 3869   1.945   0.359   2.067
  968SOL    HW1 3870   1.993   0.293   2.116
  968SOL    HW2 3871   1.910   0.312   1.991
  968SOL     MW 3872   1.945   0.349   2.064
  969SOL     OW 3873   1.351   2.868   2.398
  969SOL    HW1 3874   1.419   2.851   2.333
  969SOL    HW2 3875   1.361   2.962   2.419
  969SOL     MW 3876   1.357   2.875   2.394
  970SOL     OW 3877   0.115   2.950   1.867
  970SOL    HW1 3878   0.037   2.951   1.811
  970SOL    HW2 3879   0.104   2.872   1.922
  970SOL     MW 3880   0.108   2.943   1.867
  971SOL     OW 3881   2.991   2.188   0.022
  971SOL    HW1 3882   3.080   2.220   0.036
  971SOL    HW2 3883   2.936   2.266   0.029
  971SOL     MW 3884   2.994   2.198   0.023
  972SOL     OW 3885   1.673   1.887   0.269
  972SOL    HW1 3886   1.587   1.861   0.237
  972SOL    HW2 3887   1.729   1.889   0.190
  972SOL     MW 3888   1.671   1.885   0.259
  973SOL     OW 3889   0.713   0.765   1.032
  973SOL    HW1 3890   0.768   0.813   0.970
  973SOL    HW2 3891   0.775   0.725   1.094
  973SOL     MW 3892   0.724   0.766   1.033
  974SOL     OW 3893   2.210   0.350   0.417
  974SOL    HW1 3894   2.122   0.317   0.431
  974SOL    HW2 3895   2.242   0.302   0.340
  974SOL     MW 3896   2.205   0.343   0.411
  975SOL     OW 3897   0.893   2.501   2.067
  975SOL    HW1 3898   0.939   2.571   2.113
  975SOL    HW2 3899   0.952   2.476   1.995
  975SOL     MW 3900   0.903   2.504   2.065
  976SOL     OW 3901   2.072   1.930   2.091
  976SOL    HW1 3902   2.100   1.952   2.180
  976SOL    HW2 3903   2.153   1.903   2.046
  976SOL     MW 3904   2.082   1.929   2.095
  977SOL     OW 3905   2.548   1.327   0.791
  977SOL    HW1 3906   2.589   1.392   0.848
  977SOL    HW2 3907   2.618   1.302   0.729
  977SOL     MW 3908   2.558   1.330   0.791
  978SOL     OW 3909   0.345   1.453   0.429
  978SOL    HW1 3910   0.250   1.458   0.429
  978SOL    HW2 3911   0.374   1.545   0.430
  978SOL     MW 3912   0.340   1.462   0.430
  979SOL     OW 3913   0.087   1.167   2.257
  979SOL    HW1 3914   0.117   1.086   2.216
  979SOL    HW2 3915   0.138   1.173   2.339
  979SOL     MW 3916   0.095   1.161   2.261
  980SOL     OW 3917   0.284   2.431   2.098
  980SOL    HW1 3918   0.243   2.509   2.063
  980SOL    HW2 3919   0.264   2.362   2.035
  980SOL     MW 3920   0.280   2.432   2.089
  981SOL     OW 3921   1.996   2.276   2.460
  981SOL    HW1 3922   2.021   2.330   2.385
  981SOL    HW2 3923   1.933   2.213   2.424
  981SOL     MW 3924   1.993   2.274   2.450
  982SOL     OW 3925   0.146   2.080   0.777
  982SOL    HW1 3926   0.132   2.053   0.868
  982SOL    HW2 3927   0.181   2.001   0.734
  982SOL     MW 3928   0.147   2.070   0.781
  983SOL     OW 3929   1.630   1.232   0.377
  983SOL    HW1 3930   1.707   1.226   0.433
  983SOL    HW2 3931   1.583   1.149   0.392
  983SOL     MW 3932   1.632   1.224   0.384
  984SOL     OW 3933   1.751   1.791   1.544
  984SOL    HW1 3934   1.826   1.817   1.491
  984SOL    HW2 3935   1.682   1.772   1.480
  984SOL     MW 3936   1.752   1.791   1.533
  985SOL     OW 3937   0.248   1.626   2.157
  985SOL    HW1 3938   0.283   1.623   2.245
  985SOL    HW2 3939   0.253   1.720   2.133
  985SOL     MW 3940   0.252   1.635   2.162
  986SOL     OW 3941   2.148   0.508   1.106
  986SOL    HW1 3942   2.174   0.418   1.090
  986SOL    HW2 3943   2.055   0.511   1.081
  986SOL     MW 3944   2.141   0.501   1.103
  987SOL     OW 3945   0.289   1.608   2.898
  987SOL    HW1 3946   0.218   1.592   2.837
  987SOL    HW2 3947   0.259   1.682   2.951
  987SOL     MW 3948   0.280   1.613   2.898
  988SOL     OW 3949   1.236   0.859   1.835
  988SOL    HW1 3950   1.195   0.938   1.799
  988SOL    HW2 3951   1.169   0.790   1.822
  988SOL     MW 3952   1.226   0.859   1.830
  989SOL     OW 3953   3.007   0.669   0.790
  989SOL    HW1 3954   2.931   0.726   0.783
  989SOL    HW2 3955   3.082   0.725   0.765
  989SOL     MW 3956   3.008   0.679   0.788
  990SOL     OW 3957   2.263   1.685   1.380
  990SOL    HW1 3958   2.202   1.713   1.448
  990SOL    HW2 3959   2.350   1.710   1.414
  990SOL     MW 3960   2.266   1.689   1.389
  991SOL     OW 3961   1.535   2.613   0.111
  991SOL    HW1 3962   1.551   2.557   0.035
  991SOL    HW2 3963   1.620   2.620   0.155
  991SOL     MW 3964   1.544   2.609   0.108
  992SOL     OW 3965   0.885   0.675   0.699
  992SOL    HW1 3966   0.809   0.719   0.737
  992SOL    HW2 3967   0.930   0.743   0.648
  992SOL     MW 3968   0.883   0.685   0.698
  993SOL     OW 3969   1.233   2.900   1.451
  993SOL    HW1 3970   1.206   2.810   1.465
  993SOL    HW2 3971   1.299   2.916   1.520
  993SOL     MW 3972   1.237   2.894   1.458
  994SOL     OW 3973   1.305   2.700   0.950
  994SOL    HW1 3974   1.246   2.639   0.994
  994SOL    HW2 3975   1.257   2.727   0.871
  994SOL     MW 3976   1.295   2.697   0.947
  995SOL     OW 3977   2.832   1.123   2.361
  995SOL    HW1 3978   2.752   1.098   2.316
  995SOL    HW2 3979   2.842   1.056   2.430
  995SOL     MW 3980   2.826   1.114   2.363
  996SOL     OW 3981   2.407   1.712   0.650
  996SOL    HW1 3982   2.422   1.697   0.557
  996SOL    HW2 3983   2.484   1.761   0.679
  996SOL     MW 3984   2.415   1.716   0.644
  997SOL     OW 3985   0.139   0.437   1.605
  997SOL    HW1 3986   0.122   0.387   1.685
  997SOL    HW2 3987   0.149   0.370   1.536
  997SOL     MW 3988   0.138   0.427   1.606
  998SOL     OW 3989   1.500   1.638   0.357
  998SOL    HW1 3990   1.552   1.647   0.277
  998SOL    HW2 3991   1.485   1.543   0.365
  998SOL     MW 3992   1.504   1.630   0.351
  999SOL     OW 3993   0.050   1.935   2.014
  999SOL    HW1 3994   0.117   1.913   1.950
  999SOL    HW2 3995   0.043   1.857   2.069
  999SOL     MW 3996   0.055   1.926   2.013
 1000SOL     OW 3997   2.487   0.787   3.024
 1000SOL    HW1 3998   2.528   0.867   3.056
 1000SOL    HW2 3999   2.545   0.756   2.953
 1000SOL     MW 4000   2.496   0.791   3.020
   3.20000   3.20000   3.20000
